LAMMPS (7 Jan 2022)
OMP_NUM_THREADS environment is not set. Defaulting to 1 thread. (src/comm.cpp:98)
  using 1 OpenMP thread(s) per MPI task
Lattice spacing in x,y,z = 3.597 3.597 3.597
Created orthogonal box = (0 0 0) to (3.597 3.597 3.597)
  1 by 1 by 1 MPI processor grid
Created 4 atoms
  using lattice units in orthogonal box = (0 0 0) to (3.597 3.597 3.597)
  create_atoms CPU = 0.000 seconds
4 atoms in group Al
n_r1, n_rp: 15 66
nperdim,sizearraycols, 81 82 
  generated 0 of 0 mixed pair_coeff terms from geometric mixing rule
Neighbor list info ...
  update every 2 steps, delay 10 steps, check yes
  max neighbors/atom: 2000, page size: 100000
  master list distance cutoff = 7.802
  ghost atom cutoff = 7.802
  binsize = 3.901, bins = 1 1 1
  2 neighbor lists, perpetual/occasional/extra = 1 1 0
  (1) pair zero, perpetual
      attributes: half, newton on
      pair build: half/bin/atomonly/newton
      stencil: half/bin/3d
      bin: standard
  (2) compute pace, occasional
      attributes: full, newton on
      pair build: full/bin/atomonly
      stencil: full/bin/3d
      bin: standard
Setting up Verlet run ...
  Unit style    : metal
  Current step  : 0
  Time step     : 0.0005
Per MPI rank memory allocation (min/avg/max) = 4.896 | 4.896 | 4.896 Mbytes
Step Temp c_desc[1][1] c_desc[1][2] c_desc[1][3] c_desc[1][4] c_desc[1][5] c_desc[1][6] c_desc[1][7] c_desc[1][8] c_desc[1][9] c_desc[1][10] c_desc[1][11] c_desc[1][12] c_desc[1][13] c_desc[1][14] c_desc[1][15] c_desc[1][16] c_desc[1][17] c_desc[1][18] c_desc[1][19] c_desc[1][20] c_desc[1][21] c_desc[1][22] c_desc[1][23] c_desc[1][24] c_desc[1][25] c_desc[1][26] c_desc[1][27] c_desc[1][28] c_desc[1][29] c_desc[1][30] c_desc[1][31] c_desc[1][32] c_desc[1][33] c_desc[1][34] c_desc[1][35] c_desc[1][36] c_desc[1][37] c_desc[1][38] c_desc[1][39] c_desc[1][40] c_desc[1][41] c_desc[1][42] c_desc[1][43] c_desc[1][44] c_desc[1][45] c_desc[1][46] c_desc[1][47] c_desc[1][48] c_desc[1][49] c_desc[1][50] c_desc[1][51] c_desc[1][52] c_desc[1][53] c_desc[1][54] c_desc[1][55] c_desc[1][56] c_desc[1][57] c_desc[1][58] c_desc[1][59] c_desc[1][60] c_desc[1][61] c_desc[1][62] c_desc[1][63] c_desc[1][64] c_desc[1][65] c_desc[1][66] c_desc[1][67] c_desc[1][68] c_desc[1][69] c_desc[1][70] c_desc[1][71] c_desc[1][72] c_desc[1][73] c_desc[1][74] c_desc[1][75] c_desc[1][76] c_desc[1][77] c_desc[1][78] c_desc[1][79] c_desc[1][80] c_desc[1][81] 
beginning of en basis loop
function index: 0 
function index: 1 
function index: 2 
function index: 3 
function index: 4 
function index: 5 
function index: 6 
function index: 7 
function index: 8 
function index: 9 
function index: 10 
function index: 11 
function index: 12 
function index: 13 
function index: 14 
atom, coeffidx, coeff: 0, 0, 23.138656 
atom, coeffidx, coeff: 0, 1, 1.686162 
atom, coeffidx, coeff: 0, 2, 5.963540 
atom, coeffidx, coeff: 0, 3, 10.909354 
atom, coeffidx, coeff: 0, 4, 14.484014 
atom, coeffidx, coeff: 0, 5, 15.585271 
atom, coeffidx, coeff: 0, 6, 14.546273 
atom, coeffidx, coeff: 0, 7, 12.814460 
atom, coeffidx, coeff: 0, 8, 12.017275 
atom, coeffidx, coeff: 0, 9, 12.967129 
atom, coeffidx, coeff: 0, 10, 15.183996 
atom, coeffidx, coeff: 0, 11, 17.206556 
atom, coeffidx, coeff: 0, 12, 17.500987 
atom, coeffidx, coeff: 0, 13, 15.427769 
atom, coeffidx, coeff: 0, 14, 11.692740 
atom, coeffidx, coeff: 0, 15, 535.397393 
atom, coeffidx, coeff: 0, 16, 0.000000 
atom, coeffidx, coeff: 0, 17, 0.000000 
atom, coeffidx, coeff: 0, 18, 39.015516 
atom, coeffidx, coeff: 0, 19, 0.000000 
atom, coeffidx, coeff: 0, 20, -0.000000 
atom, coeffidx, coeff: 0, 21, 137.988309 
atom, coeffidx, coeff: 0, 22, 0.000000 
atom, coeffidx, coeff: 0, 23, -0.000000 
atom, coeffidx, coeff: 0, 24, 2.843141 
atom, coeffidx, coeff: 0, 25, 0.000000 
atom, coeffidx, coeff: 0, 26, 0.000000 
atom, coeffidx, coeff: 0, 27, 10.055494 
atom, coeffidx, coeff: 0, 28, -0.000000 
atom, coeffidx, coeff: 0, 29, 0.000000 
atom, coeffidx, coeff: 0, 30, 35.563814 
atom, coeffidx, coeff: 0, 31, 0.000000 
atom, coeffidx, coeff: 0, 32, 0.000000 
atom, coeffidx, coeff: 0, 33, 12388.375989 
atom, coeffidx, coeff: 0, 34, -0.000000 
atom, coeffidx, coeff: 0, 35, 0.000000 
atom, coeffidx, coeff: 0, 36, 0.000000 
atom, coeffidx, coeff: 0, 37, 0.000000 
atom, coeffidx, coeff: 0, 38, 902.766598 
atom, coeffidx, coeff: 0, 39, -0.000000 
atom, coeffidx, coeff: 0, 40, -0.000000 
atom, coeffidx, coeff: 0, 41, -0.000000 
atom, coeffidx, coeff: 0, 42, -0.000000 
atom, coeffidx, coeff: 0, 43, 0.000000 
atom, coeffidx, coeff: 0, 44, -0.000000 
atom, coeffidx, coeff: 0, 45, 0.000000 
atom, coeffidx, coeff: 0, 46, 65.786470 
atom, coeffidx, coeff: 0, 47, -0.000000 
atom, coeffidx, coeff: 0, 48, 0.000000 
atom, coeffidx, coeff: 0, 49, -0.000000 
atom, coeffidx, coeff: 0, 50, 0.000000 
atom, coeffidx, coeff: 0, 51, -0.000000 
atom, coeffidx, coeff: 0, 52, -0.000000 
atom, coeffidx, coeff: 0, 53, 0.000000 
atom, coeffidx, coeff: 0, 54, 4.793996 
atom, coeffidx, coeff: 0, 55, -0.000000 
atom, coeffidx, coeff: 0, 56, 0.000000 
atom, coeffidx, coeff: 0, 57, -0.000000 
atom, coeffidx, coeff: 0, 58, -0.000000 
atom, coeffidx, coeff: 0, 59, 286650.368045 
atom, coeffidx, coeff: 0, 60, -0.000000 
atom, coeffidx, coeff: 0, 61, 0.000000 
atom, coeffidx, coeff: 0, 62, 20888.805576 
atom, coeffidx, coeff: 0, 63, -0.000000 
atom, coeffidx, coeff: 0, 64, 0.000000 
atom, coeffidx, coeff: 0, 65, -0.000000 
atom, coeffidx, coeff: 0, 66, 1522.210494 
atom, coeffidx, coeff: 0, 67, -0.000000 
atom, coeffidx, coeff: 0, 68, 0.000000 
atom, coeffidx, coeff: 0, 69, -0.000000 
atom, coeffidx, coeff: 0, 70, -0.000000 
atom, coeffidx, coeff: 0, 71, 110.926629 
atom, coeffidx, coeff: 0, 72, -0.000000 
atom, coeffidx, coeff: 0, 73, 0.000000 
atom, coeffidx, coeff: 0, 74, -0.000000 
atom, coeffidx, coeff: 0, 75, 8.083453 
atom, coeffidx, coeff: 0, 76, -0.000000 
atom, coeffidx, coeff: 0, 77, 0.000000 
atom, coeffidx, coeff: 0, 78, 6632704.203662 
atom, coeffidx, coeff: 0, 79, -0.000000 
atom, coeffidx, coeff: 0, 80, -0.000000 
beginning of en basis loop
function index: 0 
function index: 1 
function index: 2 
function index: 3 
function index: 4 
function index: 5 
function index: 6 
function index: 7 
function index: 8 
function index: 9 
function index: 10 
function index: 11 
function index: 12 
function index: 13 
function index: 14 
atom, coeffidx, coeff: 1, 0, 23.138656 
atom, coeffidx, coeff: 1, 1, 1.686162 
atom, coeffidx, coeff: 1, 2, 5.963540 
atom, coeffidx, coeff: 1, 3, 10.909354 
atom, coeffidx, coeff: 1, 4, 14.484014 
atom, coeffidx, coeff: 1, 5, 15.585271 
atom, coeffidx, coeff: 1, 6, 14.546273 
atom, coeffidx, coeff: 1, 7, 12.814460 
atom, coeffidx, coeff: 1, 8, 12.017275 
atom, coeffidx, coeff: 1, 9, 12.967129 
atom, coeffidx, coeff: 1, 10, 15.183996 
atom, coeffidx, coeff: 1, 11, 17.206556 
atom, coeffidx, coeff: 1, 12, 17.500987 
atom, coeffidx, coeff: 1, 13, 15.427769 
atom, coeffidx, coeff: 1, 14, 11.692740 
atom, coeffidx, coeff: 1, 15, 535.397393 
atom, coeffidx, coeff: 1, 16, 0.000000 
atom, coeffidx, coeff: 1, 17, 0.000000 
atom, coeffidx, coeff: 1, 18, 39.015516 
atom, coeffidx, coeff: 1, 19, -0.000000 
atom, coeffidx, coeff: 1, 20, 0.000000 
atom, coeffidx, coeff: 1, 21, 137.988309 
atom, coeffidx, coeff: 1, 22, -0.000000 
atom, coeffidx, coeff: 1, 23, 0.000000 
atom, coeffidx, coeff: 1, 24, 2.843141 
atom, coeffidx, coeff: 1, 25, 0.000000 
atom, coeffidx, coeff: 1, 26, 0.000000 
atom, coeffidx, coeff: 1, 27, 10.055494 
atom, coeffidx, coeff: 1, 28, 0.000000 
atom, coeffidx, coeff: 1, 29, 0.000000 
atom, coeffidx, coeff: 1, 30, 35.563814 
atom, coeffidx, coeff: 1, 31, 0.000000 
atom, coeffidx, coeff: 1, 32, 0.000000 
atom, coeffidx, coeff: 1, 33, 12388.375989 
atom, coeffidx, coeff: 1, 34, -0.000000 
atom, coeffidx, coeff: 1, 35, 0.000000 
atom, coeffidx, coeff: 1, 36, 0.000000 
atom, coeffidx, coeff: 1, 37, 0.000000 
atom, coeffidx, coeff: 1, 38, 902.766598 
atom, coeffidx, coeff: 1, 39, 0.000000 
atom, coeffidx, coeff: 1, 40, 0.000000 
atom, coeffidx, coeff: 1, 41, 0.000000 
atom, coeffidx, coeff: 1, 42, 0.000000 
atom, coeffidx, coeff: 1, 43, 0.000000 
atom, coeffidx, coeff: 1, 44, -0.000000 
atom, coeffidx, coeff: 1, 45, 0.000000 
atom, coeffidx, coeff: 1, 46, 65.786470 
atom, coeffidx, coeff: 1, 47, -0.000000 
atom, coeffidx, coeff: 1, 48, 0.000000 
atom, coeffidx, coeff: 1, 49, 0.000000 
atom, coeffidx, coeff: 1, 50, -0.000000 
atom, coeffidx, coeff: 1, 51, 0.000000 
atom, coeffidx, coeff: 1, 52, 0.000000 
atom, coeffidx, coeff: 1, 53, 0.000000 
atom, coeffidx, coeff: 1, 54, 4.793996 
atom, coeffidx, coeff: 1, 55, -0.000000 
atom, coeffidx, coeff: 1, 56, 0.000000 
atom, coeffidx, coeff: 1, 57, -0.000000 
atom, coeffidx, coeff: 1, 58, -0.000000 
atom, coeffidx, coeff: 1, 59, 286650.368045 
atom, coeffidx, coeff: 1, 60, -0.000000 
atom, coeffidx, coeff: 1, 61, 0.000000 
atom, coeffidx, coeff: 1, 62, 20888.805576 
atom, coeffidx, coeff: 1, 63, 0.000000 
atom, coeffidx, coeff: 1, 64, -0.000000 
atom, coeffidx, coeff: 1, 65, -0.000000 
atom, coeffidx, coeff: 1, 66, 1522.210494 
atom, coeffidx, coeff: 1, 67, -0.000000 
atom, coeffidx, coeff: 1, 68, 0.000000 
atom, coeffidx, coeff: 1, 69, 0.000000 
atom, coeffidx, coeff: 1, 70, -0.000000 
atom, coeffidx, coeff: 1, 71, 110.926629 
atom, coeffidx, coeff: 1, 72, -0.000000 
atom, coeffidx, coeff: 1, 73, -0.000000 
atom, coeffidx, coeff: 1, 74, 0.000000 
atom, coeffidx, coeff: 1, 75, 8.083453 
atom, coeffidx, coeff: 1, 76, -0.000000 
atom, coeffidx, coeff: 1, 77, 0.000000 
atom, coeffidx, coeff: 1, 78, 6632704.203662 
atom, coeffidx, coeff: 1, 79, -0.000000 
atom, coeffidx, coeff: 1, 80, -0.000000 
beginning of en basis loop
function index: 0 
function index: 1 
function index: 2 
function index: 3 
function index: 4 
function index: 5 
function index: 6 
function index: 7 
function index: 8 
function index: 9 
function index: 10 
function index: 11 
function index: 12 
function index: 13 
function index: 14 
atom, coeffidx, coeff: 2, 0, 23.138656 
atom, coeffidx, coeff: 2, 1, 1.686162 
atom, coeffidx, coeff: 2, 2, 5.963540 
atom, coeffidx, coeff: 2, 3, 10.909354 
atom, coeffidx, coeff: 2, 4, 14.484014 
atom, coeffidx, coeff: 2, 5, 15.585271 
atom, coeffidx, coeff: 2, 6, 14.546273 
atom, coeffidx, coeff: 2, 7, 12.814460 
atom, coeffidx, coeff: 2, 8, 12.017275 
atom, coeffidx, coeff: 2, 9, 12.967129 
atom, coeffidx, coeff: 2, 10, 15.183996 
atom, coeffidx, coeff: 2, 11, 17.206556 
atom, coeffidx, coeff: 2, 12, 17.500987 
atom, coeffidx, coeff: 2, 13, 15.427769 
atom, coeffidx, coeff: 2, 14, 11.692740 
atom, coeffidx, coeff: 2, 15, 535.397393 
atom, coeffidx, coeff: 2, 16, 0.000000 
atom, coeffidx, coeff: 2, 17, 0.000000 
atom, coeffidx, coeff: 2, 18, 39.015516 
atom, coeffidx, coeff: 2, 19, -0.000000 
atom, coeffidx, coeff: 2, 20, 0.000000 
atom, coeffidx, coeff: 2, 21, 137.988309 
atom, coeffidx, coeff: 2, 22, -0.000000 
atom, coeffidx, coeff: 2, 23, 0.000000 
atom, coeffidx, coeff: 2, 24, 2.843141 
atom, coeffidx, coeff: 2, 25, 0.000000 
atom, coeffidx, coeff: 2, 26, 0.000000 
atom, coeffidx, coeff: 2, 27, 10.055494 
atom, coeffidx, coeff: 2, 28, 0.000000 
atom, coeffidx, coeff: 2, 29, 0.000000 
atom, coeffidx, coeff: 2, 30, 35.563814 
atom, coeffidx, coeff: 2, 31, 0.000000 
atom, coeffidx, coeff: 2, 32, 0.000000 
atom, coeffidx, coeff: 2, 33, 12388.375989 
atom, coeffidx, coeff: 2, 34, -0.000000 
atom, coeffidx, coeff: 2, 35, 0.000000 
atom, coeffidx, coeff: 2, 36, -0.000000 
atom, coeffidx, coeff: 2, 37, 0.000000 
atom, coeffidx, coeff: 2, 38, 902.766598 
atom, coeffidx, coeff: 2, 39, 0.000000 
atom, coeffidx, coeff: 2, 40, 0.000000 
atom, coeffidx, coeff: 2, 41, 0.000000 
atom, coeffidx, coeff: 2, 42, 0.000000 
atom, coeffidx, coeff: 2, 43, 0.000000 
atom, coeffidx, coeff: 2, 44, -0.000000 
atom, coeffidx, coeff: 2, 45, 0.000000 
atom, coeffidx, coeff: 2, 46, 65.786470 
atom, coeffidx, coeff: 2, 47, -0.000000 
atom, coeffidx, coeff: 2, 48, 0.000000 
atom, coeffidx, coeff: 2, 49, -0.000000 
atom, coeffidx, coeff: 2, 50, -0.000000 
atom, coeffidx, coeff: 2, 51, 0.000000 
atom, coeffidx, coeff: 2, 52, 0.000000 
atom, coeffidx, coeff: 2, 53, 0.000000 
atom, coeffidx, coeff: 2, 54, 4.793996 
atom, coeffidx, coeff: 2, 55, -0.000000 
atom, coeffidx, coeff: 2, 56, 0.000000 
atom, coeffidx, coeff: 2, 57, 0.000000 
atom, coeffidx, coeff: 2, 58, -0.000000 
atom, coeffidx, coeff: 2, 59, 286650.368045 
atom, coeffidx, coeff: 2, 60, -0.000000 
atom, coeffidx, coeff: 2, 61, 0.000000 
atom, coeffidx, coeff: 2, 62, 20888.805576 
atom, coeffidx, coeff: 2, 63, 0.000000 
atom, coeffidx, coeff: 2, 64, -0.000000 
atom, coeffidx, coeff: 2, 65, -0.000000 
atom, coeffidx, coeff: 2, 66, 1522.210494 
atom, coeffidx, coeff: 2, 67, -0.000000 
atom, coeffidx, coeff: 2, 68, 0.000000 
atom, coeffidx, coeff: 2, 69, 0.000000 
atom, coeffidx, coeff: 2, 70, -0.000000 
atom, coeffidx, coeff: 2, 71, 110.926629 
atom, coeffidx, coeff: 2, 72, -0.000000 
atom, coeffidx, coeff: 2, 73, -0.000000 
atom, coeffidx, coeff: 2, 74, 0.000000 
atom, coeffidx, coeff: 2, 75, 8.083453 
atom, coeffidx, coeff: 2, 76, -0.000000 
atom, coeffidx, coeff: 2, 77, 0.000000 
atom, coeffidx, coeff: 2, 78, 6632704.203662 
atom, coeffidx, coeff: 2, 79, -0.000000 
atom, coeffidx, coeff: 2, 80, -0.000000 
beginning of en basis loop
function index: 0 
function index: 1 
function index: 2 
function index: 3 
function index: 4 
function index: 5 
function index: 6 
function index: 7 
function index: 8 
function index: 9 
function index: 10 
function index: 11 
function index: 12 
function index: 13 
function index: 14 
atom, coeffidx, coeff: 3, 0, 23.138656 
atom, coeffidx, coeff: 3, 1, 1.686162 
atom, coeffidx, coeff: 3, 2, 5.963540 
atom, coeffidx, coeff: 3, 3, 10.909354 
atom, coeffidx, coeff: 3, 4, 14.484014 
atom, coeffidx, coeff: 3, 5, 15.585271 
atom, coeffidx, coeff: 3, 6, 14.546273 
atom, coeffidx, coeff: 3, 7, 12.814460 
atom, coeffidx, coeff: 3, 8, 12.017275 
atom, coeffidx, coeff: 3, 9, 12.967129 
atom, coeffidx, coeff: 3, 10, 15.183996 
atom, coeffidx, coeff: 3, 11, 17.206556 
atom, coeffidx, coeff: 3, 12, 17.500987 
atom, coeffidx, coeff: 3, 13, 15.427769 
atom, coeffidx, coeff: 3, 14, 11.692740 
atom, coeffidx, coeff: 3, 15, 535.397393 
atom, coeffidx, coeff: 3, 16, 0.000000 
atom, coeffidx, coeff: 3, 17, 0.000000 
atom, coeffidx, coeff: 3, 18, 39.015516 
atom, coeffidx, coeff: 3, 19, 0.000000 
atom, coeffidx, coeff: 3, 20, 0.000000 
atom, coeffidx, coeff: 3, 21, 137.988309 
atom, coeffidx, coeff: 3, 22, -0.000000 
atom, coeffidx, coeff: 3, 23, 0.000000 
atom, coeffidx, coeff: 3, 24, 2.843141 
atom, coeffidx, coeff: 3, 25, 0.000000 
atom, coeffidx, coeff: 3, 26, 0.000000 
atom, coeffidx, coeff: 3, 27, 10.055494 
atom, coeffidx, coeff: 3, 28, 0.000000 
atom, coeffidx, coeff: 3, 29, 0.000000 
atom, coeffidx, coeff: 3, 30, 35.563814 
atom, coeffidx, coeff: 3, 31, 0.000000 
atom, coeffidx, coeff: 3, 32, 0.000000 
atom, coeffidx, coeff: 3, 33, 12388.375989 
atom, coeffidx, coeff: 3, 34, -0.000000 
atom, coeffidx, coeff: 3, 35, 0.000000 
atom, coeffidx, coeff: 3, 36, 0.000000 
atom, coeffidx, coeff: 3, 37, -0.000000 
atom, coeffidx, coeff: 3, 38, 902.766598 
atom, coeffidx, coeff: 3, 39, -0.000000 
atom, coeffidx, coeff: 3, 40, 0.000000 
atom, coeffidx, coeff: 3, 41, 0.000000 
atom, coeffidx, coeff: 3, 42, -0.000000 
atom, coeffidx, coeff: 3, 43, 0.000000 
atom, coeffidx, coeff: 3, 44, -0.000000 
atom, coeffidx, coeff: 3, 45, 0.000000 
atom, coeffidx, coeff: 3, 46, 65.786470 
atom, coeffidx, coeff: 3, 47, -0.000000 
atom, coeffidx, coeff: 3, 48, 0.000000 
atom, coeffidx, coeff: 3, 49, 0.000000 
atom, coeffidx, coeff: 3, 50, -0.000000 
atom, coeffidx, coeff: 3, 51, -0.000000 
atom, coeffidx, coeff: 3, 52, 0.000000 
atom, coeffidx, coeff: 3, 53, -0.000000 
atom, coeffidx, coeff: 3, 54, 4.793996 
atom, coeffidx, coeff: 3, 55, -0.000000 
atom, coeffidx, coeff: 3, 56, 0.000000 
atom, coeffidx, coeff: 3, 57, -0.000000 
atom, coeffidx, coeff: 3, 58, -0.000000 
atom, coeffidx, coeff: 3, 59, 286650.368045 
atom, coeffidx, coeff: 3, 60, -0.000000 
atom, coeffidx, coeff: 3, 61, 0.000000 
atom, coeffidx, coeff: 3, 62, 20888.805576 
atom, coeffidx, coeff: 3, 63, -0.000000 
atom, coeffidx, coeff: 3, 64, 0.000000 
atom, coeffidx, coeff: 3, 65, -0.000000 
atom, coeffidx, coeff: 3, 66, 1522.210494 
atom, coeffidx, coeff: 3, 67, -0.000000 
atom, coeffidx, coeff: 3, 68, 0.000000 
atom, coeffidx, coeff: 3, 69, -0.000000 
atom, coeffidx, coeff: 3, 70, -0.000000 
atom, coeffidx, coeff: 3, 71, 110.926629 
atom, coeffidx, coeff: 3, 72, -0.000000 
atom, coeffidx, coeff: 3, 73, 0.000000 
atom, coeffidx, coeff: 3, 74, -0.000000 
atom, coeffidx, coeff: 3, 75, 8.083453 
atom, coeffidx, coeff: 3, 76, -0.000000 
atom, coeffidx, coeff: 3, 77, 0.000000 
atom, coeffidx, coeff: 3, 78, 6632704.203662 
atom, coeffidx, coeff: 3, 79, -0.000000 
atom, coeffidx, coeff: 3, 80, -0.000000 
       0            0    92.554623    6.7446469    23.854162    43.637417    57.936055    62.341082    58.185092    51.257841    48.069101    51.868518    60.735984    68.826222    70.003946    61.711078    46.770958    2141.5896 1.1469712e-29 3.1206652e-30    156.06206 7.034582e-32 1.4494974e-31    551.95324 -2.6814224e-30 1.6779159e-30    11.372566 4.154318e-32 4.7175362e-31    40.221975 6.7211212e-32 1.8001058e-30    142.25526 1.3175095e-30 8.2612162e-30    49553.504 -1.5322514e-28 3.2292398e-29 2.4733161e-45 1.4045521e-46    3611.0664 -9.3975749e-31 1.4999286e-30 9.7495329e-46 -2.1738455e-48 5.9355929e-47 -1.1165833e-29 2.3532139e-30    263.14588 -5.5497987e-31 4.8816694e-30 -4.4667797e-48 -1.8117994e-47 -6.8482073e-32 1.093029e-31 2.0627347e-48    19.175985 -4.0442532e-32 3.5573735e-31 1.8065398e-49 -3.9356131e-47    1146601.5 -3.5454237e-27 3.1993163e-59    83555.222 -2.1744725e-29 4.0015787e-61 -2.5836236e-28     6088.842 -1.2841488e-29 3.6547552e-62 -1.5845831e-30 -1.88274e-29    443.70652 -9.3578583e-31 9.4493899e-65 -1.1547185e-31    32.333812 -6.819265e-32 2.264188e-64     26530817 -8.2036339e-26 -4.2740016e-58 
Loop time of 1.228e-06 on 1 procs for 0 steps with 4 atoms

0.0% CPU use with 1 MPI tasks x 1 OpenMP threads

MPI task timing breakdown:
Section |  min time  |  avg time  |  max time  |%varavg| %total
---------------------------------------------------------------
Pair    | 0          | 0          | 0          |   0.0 |  0.00
Neigh   | 0          | 0          | 0          |   0.0 |  0.00
Comm    | 0          | 0          | 0          |   0.0 |  0.00
Output  | 0          | 0          | 0          |   0.0 |  0.00
Modify  | 0          | 0          | 0          |   0.0 |  0.00
Other   |            | 1.228e-06  |            |       |100.00

Nlocal:              4 ave           4 max           4 min
Histogram: 1 0 0 0 0 0 0 0 0 0
Nghost:            662 ave         662 max         662 min
Histogram: 1 0 0 0 0 0 0 0 0 0
Neighs:            352 ave         352 max         352 min
Histogram: 1 0 0 0 0 0 0 0 0 0
FullNghs:          704 ave         704 max         704 min
Histogram: 1 0 0 0 0 0 0 0 0 0

Total # of neighbors = 704
Ave neighs/atom = 176
Neighbor list builds = 0
Dangerous builds = 0
Total wall time: 0:00:00
