LAMMPS (7 Jan 2022)
OMP_NUM_THREADS environment is not set. Defaulting to 1 thread. (src/comm.cpp:98)
  using 1 OpenMP thread(s) per MPI task
Reading data file ...
  orthogonal box = (0 0 0) to (10 10 10)
  1 by 1 by 1 MPI processor grid
  reading atoms ...
  56 atoms
  read_data CPU = 0.001 seconds
ACE version: 2021.10.25
Product evaluator is used
Loading coupling_coefficients.yace
Total number of basis functions
	C: 6 (r=1) 162 (r>1)
	H: 6 (r=1) 162 (r>1)
	O: 6 (r=1) 162 (r>1)
Mapping LAMMPS atom type #1(C) -> ACE species type #0
Mapping LAMMPS atom type #2(H) -> ACE species type #1
Mapping LAMMPS atom type #3(O) -> ACE species type #2
atomntypes: 3 
n_r1, n_rp: 6 162
nperdim,sizearraycols, 168 505 
  generated 0 of 3 mixed pair_coeff terms from geometric mixing rule
Neighbor list info ...
  update every 2 steps, delay 10 steps, check yes
  max neighbors/atom: 2000, page size: 100000
  master list distance cutoff = 7.802
  ghost atom cutoff = 7.802
  binsize = 3.901, bins = 3 3 3
  2 neighbor lists, perpetual/occasional/extra = 1 1 0
  (1) pair zero, perpetual
      attributes: half, newton on
      pair build: half/bin/atomonly/newton
      stencil: half/bin/3d
      bin: standard
  (2) compute pace, occasional
      attributes: full, newton on
      pair build: full/bin/atomonly
      stencil: full/bin/3d
      bin: standard
Setting up Verlet run ...
  Unit style    : metal
  Current step  : 0
  Time step     : 0.0005
Per MPI rank memory allocation (min/avg/max) = 6.326 | 6.326 | 6.326 Mbytes
Step Temp c_desc[2][1] c_desc[2][2] c_desc[2][3] c_desc[2][4] c_desc[2][5] c_desc[2][6] c_desc[2][7] c_desc[2][8] c_desc[2][9] c_desc[2][10] c_desc[2][11] c_desc[2][12] c_desc[2][13] c_desc[2][14] c_desc[2][15] c_desc[2][16] c_desc[2][17] c_desc[2][18] c_desc[2][19] c_desc[2][20] c_desc[2][21] c_desc[2][22] c_desc[2][23] c_desc[2][24] c_desc[2][25] c_desc[2][26] c_desc[2][27] c_desc[2][28] c_desc[2][29] c_desc[2][30] c_desc[2][31] c_desc[2][32] c_desc[2][33] c_desc[2][34] c_desc[2][35] c_desc[2][36] c_desc[2][37] c_desc[2][38] c_desc[2][39] c_desc[2][40] c_desc[2][41] c_desc[2][42] c_desc[2][43] c_desc[2][44] c_desc[2][45] c_desc[2][46] c_desc[2][47] c_desc[2][48] c_desc[2][49] c_desc[2][50] c_desc[2][51] c_desc[2][52] c_desc[2][53] c_desc[2][54] c_desc[2][55] c_desc[2][56] c_desc[2][57] c_desc[2][58] c_desc[2][59] c_desc[2][60] c_desc[2][61] c_desc[2][62] c_desc[2][63] c_desc[2][64] c_desc[2][65] c_desc[2][66] c_desc[2][67] c_desc[2][68] c_desc[2][69] c_desc[2][70] c_desc[2][71] c_desc[2][72] c_desc[2][73] c_desc[2][74] c_desc[2][75] c_desc[2][76] c_desc[2][77] c_desc[2][78] c_desc[2][79] c_desc[2][80] c_desc[2][81] c_desc[2][82] c_desc[2][83] c_desc[2][84] c_desc[2][85] c_desc[2][86] c_desc[2][87] c_desc[2][88] c_desc[2][89] c_desc[2][90] c_desc[2][91] c_desc[2][92] c_desc[2][93] c_desc[2][94] c_desc[2][95] c_desc[2][96] c_desc[2][97] c_desc[2][98] c_desc[2][99] c_desc[2][100] c_desc[2][101] c_desc[2][102] c_desc[2][103] c_desc[2][104] c_desc[2][105] c_desc[2][106] c_desc[2][107] c_desc[2][108] c_desc[2][109] c_desc[2][110] c_desc[2][111] c_desc[2][112] c_desc[2][113] c_desc[2][114] c_desc[2][115] c_desc[2][116] c_desc[2][117] c_desc[2][118] c_desc[2][119] c_desc[2][120] c_desc[2][121] c_desc[2][122] c_desc[2][123] c_desc[2][124] c_desc[2][125] c_desc[2][126] c_desc[2][127] c_desc[2][128] c_desc[2][129] c_desc[2][130] c_desc[2][131] c_desc[2][132] c_desc[2][133] c_desc[2][134] c_desc[2][135] c_desc[2][136] c_desc[2][137] c_desc[2][138] c_desc[2][139] c_desc[2][140] c_desc[2][141] c_desc[2][142] c_desc[2][143] c_desc[2][144] c_desc[2][145] c_desc[2][146] c_desc[2][147] c_desc[2][148] c_desc[2][149] c_desc[2][150] c_desc[2][151] c_desc[2][152] c_desc[2][153] c_desc[2][154] c_desc[2][155] c_desc[2][156] c_desc[2][157] c_desc[2][158] c_desc[2][159] c_desc[2][160] c_desc[2][161] c_desc[2][162] c_desc[2][163] c_desc[2][164] c_desc[2][165] c_desc[2][166] c_desc[2][167] c_desc[2][168] c_desc[2][169] c_desc[2][170] c_desc[2][171] c_desc[2][172] c_desc[2][173] c_desc[2][174] c_desc[2][175] c_desc[2][176] c_desc[2][177] c_desc[2][178] c_desc[2][179] c_desc[2][180] c_desc[2][181] c_desc[2][182] c_desc[2][183] c_desc[2][184] c_desc[2][185] c_desc[2][186] c_desc[2][187] c_desc[2][188] c_desc[2][189] c_desc[2][190] c_desc[2][191] c_desc[2][192] c_desc[2][193] c_desc[2][194] c_desc[2][195] c_desc[2][196] c_desc[2][197] c_desc[2][198] c_desc[2][199] c_desc[2][200] c_desc[2][201] c_desc[2][202] c_desc[2][203] c_desc[2][204] c_desc[2][205] c_desc[2][206] c_desc[2][207] c_desc[2][208] c_desc[2][209] c_desc[2][210] c_desc[2][211] c_desc[2][212] c_desc[2][213] c_desc[2][214] c_desc[2][215] c_desc[2][216] c_desc[2][217] c_desc[2][218] c_desc[2][219] c_desc[2][220] c_desc[2][221] c_desc[2][222] c_desc[2][223] c_desc[2][224] c_desc[2][225] c_desc[2][226] c_desc[2][227] c_desc[2][228] c_desc[2][229] c_desc[2][230] c_desc[2][231] c_desc[2][232] c_desc[2][233] c_desc[2][234] c_desc[2][235] c_desc[2][236] c_desc[2][237] c_desc[2][238] c_desc[2][239] c_desc[2][240] c_desc[2][241] c_desc[2][242] c_desc[2][243] c_desc[2][244] c_desc[2][245] c_desc[2][246] c_desc[2][247] c_desc[2][248] c_desc[2][249] c_desc[2][250] c_desc[2][251] c_desc[2][252] c_desc[2][253] c_desc[2][254] c_desc[2][255] c_desc[2][256] c_desc[2][257] c_desc[2][258] c_desc[2][259] c_desc[2][260] c_desc[2][261] c_desc[2][262] c_desc[2][263] c_desc[2][264] c_desc[2][265] c_desc[2][266] c_desc[2][267] c_desc[2][268] c_desc[2][269] c_desc[2][270] c_desc[2][271] c_desc[2][272] c_desc[2][273] c_desc[2][274] c_desc[2][275] c_desc[2][276] c_desc[2][277] c_desc[2][278] c_desc[2][279] c_desc[2][280] c_desc[2][281] c_desc[2][282] c_desc[2][283] c_desc[2][284] c_desc[2][285] c_desc[2][286] c_desc[2][287] c_desc[2][288] c_desc[2][289] c_desc[2][290] c_desc[2][291] c_desc[2][292] c_desc[2][293] c_desc[2][294] c_desc[2][295] c_desc[2][296] c_desc[2][297] c_desc[2][298] c_desc[2][299] c_desc[2][300] c_desc[2][301] c_desc[2][302] c_desc[2][303] c_desc[2][304] c_desc[2][305] c_desc[2][306] c_desc[2][307] c_desc[2][308] c_desc[2][309] c_desc[2][310] c_desc[2][311] c_desc[2][312] c_desc[2][313] c_desc[2][314] c_desc[2][315] c_desc[2][316] c_desc[2][317] c_desc[2][318] c_desc[2][319] c_desc[2][320] c_desc[2][321] c_desc[2][322] c_desc[2][323] c_desc[2][324] c_desc[2][325] c_desc[2][326] c_desc[2][327] c_desc[2][328] c_desc[2][329] c_desc[2][330] c_desc[2][331] c_desc[2][332] c_desc[2][333] c_desc[2][334] c_desc[2][335] c_desc[2][336] c_desc[2][337] c_desc[2][338] c_desc[2][339] c_desc[2][340] c_desc[2][341] c_desc[2][342] c_desc[2][343] c_desc[2][344] c_desc[2][345] c_desc[2][346] c_desc[2][347] c_desc[2][348] c_desc[2][349] c_desc[2][350] c_desc[2][351] c_desc[2][352] c_desc[2][353] c_desc[2][354] c_desc[2][355] c_desc[2][356] c_desc[2][357] c_desc[2][358] c_desc[2][359] c_desc[2][360] c_desc[2][361] c_desc[2][362] c_desc[2][363] c_desc[2][364] c_desc[2][365] c_desc[2][366] c_desc[2][367] c_desc[2][368] c_desc[2][369] c_desc[2][370] c_desc[2][371] c_desc[2][372] c_desc[2][373] c_desc[2][374] c_desc[2][375] c_desc[2][376] c_desc[2][377] c_desc[2][378] c_desc[2][379] c_desc[2][380] c_desc[2][381] c_desc[2][382] c_desc[2][383] c_desc[2][384] c_desc[2][385] c_desc[2][386] c_desc[2][387] c_desc[2][388] c_desc[2][389] c_desc[2][390] c_desc[2][391] c_desc[2][392] c_desc[2][393] c_desc[2][394] c_desc[2][395] c_desc[2][396] c_desc[2][397] c_desc[2][398] c_desc[2][399] c_desc[2][400] c_desc[2][401] c_desc[2][402] c_desc[2][403] c_desc[2][404] c_desc[2][405] c_desc[2][406] c_desc[2][407] c_desc[2][408] c_desc[2][409] c_desc[2][410] c_desc[2][411] c_desc[2][412] c_desc[2][413] c_desc[2][414] c_desc[2][415] c_desc[2][416] c_desc[2][417] c_desc[2][418] c_desc[2][419] c_desc[2][420] c_desc[2][421] c_desc[2][422] c_desc[2][423] c_desc[2][424] c_desc[2][425] c_desc[2][426] c_desc[2][427] c_desc[2][428] c_desc[2][429] c_desc[2][430] c_desc[2][431] c_desc[2][432] c_desc[2][433] c_desc[2][434] c_desc[2][435] c_desc[2][436] c_desc[2][437] c_desc[2][438] c_desc[2][439] c_desc[2][440] c_desc[2][441] c_desc[2][442] c_desc[2][443] c_desc[2][444] c_desc[2][445] c_desc[2][446] c_desc[2][447] c_desc[2][448] c_desc[2][449] c_desc[2][450] c_desc[2][451] c_desc[2][452] c_desc[2][453] c_desc[2][454] c_desc[2][455] c_desc[2][456] c_desc[2][457] c_desc[2][458] c_desc[2][459] c_desc[2][460] c_desc[2][461] c_desc[2][462] c_desc[2][463] c_desc[2][464] c_desc[2][465] c_desc[2][466] c_desc[2][467] c_desc[2][468] c_desc[2][469] c_desc[2][470] c_desc[2][471] c_desc[2][472] c_desc[2][473] c_desc[2][474] c_desc[2][475] c_desc[2][476] c_desc[2][477] c_desc[2][478] c_desc[2][479] c_desc[2][480] c_desc[2][481] c_desc[2][482] c_desc[2][483] c_desc[2][484] c_desc[2][485] c_desc[2][486] c_desc[2][487] c_desc[2][488] c_desc[2][489] c_desc[2][490] c_desc[2][491] c_desc[2][492] c_desc[2][493] c_desc[2][494] c_desc[2][495] c_desc[2][496] c_desc[2][497] c_desc[2][498] c_desc[2][499] c_desc[2][500] c_desc[2][501] c_desc[2][502] c_desc[2][503] c_desc[2][504] 
function index: 0 
function index: 1 
function index: 2 
function index: 3 
function index: 4 
function index: 5 
atom, coeffidx, coeff: 0, 0, 0.000000 
atom, coeffidx, coeff: 0, 1, 0.000000 
atom, coeffidx, coeff: 0, 2, 14.400266 
atom, coeffidx, coeff: 0, 3, 0.000000 
atom, coeffidx, coeff: 0, 4, 0.000000 
atom, coeffidx, coeff: 0, 5, 14.400266 
atom, coeffidx, coeff: 0, 6, 0.000000 
atom, coeffidx, coeff: 0, 7, 0.000000 
atom, coeffidx, coeff: 0, 8, 0.000000 
atom, coeffidx, coeff: 0, 9, 0.000000 
atom, coeffidx, coeff: 0, 10, 0.000000 
atom, coeffidx, coeff: 0, 11, 0.000000 
atom, coeffidx, coeff: 0, 12, 0.000000 
atom, coeffidx, coeff: 0, 13, 0.000000 
atom, coeffidx, coeff: 0, 14, 0.000000 
atom, coeffidx, coeff: 0, 15, 0.000000 
atom, coeffidx, coeff: 0, 16, 0.000000 
atom, coeffidx, coeff: 0, 17, 0.000000 
atom, coeffidx, coeff: 0, 18, 0.000000 
atom, coeffidx, coeff: 0, 19, 0.000000 
atom, coeffidx, coeff: 0, 20, 0.000000 
atom, coeffidx, coeff: 0, 21, 0.000000 
atom, coeffidx, coeff: 0, 22, 0.000000 
atom, coeffidx, coeff: 0, 23, 0.000000 
atom, coeffidx, coeff: 0, 24, 0.000000 
atom, coeffidx, coeff: 0, 25, 0.000000 
atom, coeffidx, coeff: 0, 26, 0.000000 
atom, coeffidx, coeff: 0, 27, 0.000000 
atom, coeffidx, coeff: 0, 28, 0.000000 
atom, coeffidx, coeff: 0, 29, 0.000000 
atom, coeffidx, coeff: 0, 30, 0.000000 
atom, coeffidx, coeff: 0, 31, 0.000000 
atom, coeffidx, coeff: 0, 32, 0.000000 
atom, coeffidx, coeff: 0, 33, 0.000000 
atom, coeffidx, coeff: 0, 34, 0.000000 
atom, coeffidx, coeff: 0, 35, 0.000000 
atom, coeffidx, coeff: 0, 36, 0.000000 
atom, coeffidx, coeff: 0, 37, 0.000000 
atom, coeffidx, coeff: 0, 38, 0.000000 
atom, coeffidx, coeff: 0, 39, 0.000000 
atom, coeffidx, coeff: 0, 40, 0.000000 
atom, coeffidx, coeff: 0, 41, 0.000000 
atom, coeffidx, coeff: 0, 42, 0.000000 
atom, coeffidx, coeff: 0, 43, 0.000000 
atom, coeffidx, coeff: 0, 44, 0.000000 
atom, coeffidx, coeff: 0, 45, 0.000000 
atom, coeffidx, coeff: 0, 46, 0.000000 
atom, coeffidx, coeff: 0, 47, 0.000000 
atom, coeffidx, coeff: 0, 48, 0.000000 
atom, coeffidx, coeff: 0, 49, 0.000000 
atom, coeffidx, coeff: 0, 50, 0.000000 
atom, coeffidx, coeff: 0, 51, 0.000000 
atom, coeffidx, coeff: 0, 52, 0.000000 
atom, coeffidx, coeff: 0, 53, 0.000000 
atom, coeffidx, coeff: 0, 54, 0.000000 
atom, coeffidx, coeff: 0, 55, 0.000000 
atom, coeffidx, coeff: 0, 56, 0.000000 
atom, coeffidx, coeff: 0, 57, 0.000000 
atom, coeffidx, coeff: 0, 58, 0.000000 
atom, coeffidx, coeff: 0, 59, 0.000000 
atom, coeffidx, coeff: 0, 60, 0.000000 
atom, coeffidx, coeff: 0, 61, 0.000000 
atom, coeffidx, coeff: 0, 62, 0.000000 
atom, coeffidx, coeff: 0, 63, 0.000000 
atom, coeffidx, coeff: 0, 64, 0.000000 
atom, coeffidx, coeff: 0, 65, 0.000000 
atom, coeffidx, coeff: 0, 66, 0.000000 
atom, coeffidx, coeff: 0, 67, 0.000000 
atom, coeffidx, coeff: 0, 68, 0.000000 
atom, coeffidx, coeff: 0, 69, 0.000000 
atom, coeffidx, coeff: 0, 70, 0.000000 
atom, coeffidx, coeff: 0, 71, 0.000000 
atom, coeffidx, coeff: 0, 72, 0.000000 
atom, coeffidx, coeff: 0, 73, 0.000000 
atom, coeffidx, coeff: 0, 74, 0.000000 
atom, coeffidx, coeff: 0, 75, 0.000000 
atom, coeffidx, coeff: 0, 76, 0.000000 
atom, coeffidx, coeff: 0, 77, 0.000000 
atom, coeffidx, coeff: 0, 78, 207.367668 
atom, coeffidx, coeff: 0, 79, 3.275824 
atom, coeffidx, coeff: 0, 80, 106.733575 
atom, coeffidx, coeff: 0, 81, 19.494946 
atom, coeffidx, coeff: 0, 82, 1.553116 
atom, coeffidx, coeff: 0, 83, 19.888366 
atom, coeffidx, coeff: 0, 84, 1.832749 
atom, coeffidx, coeff: 0, 85, 0.758548 
atom, coeffidx, coeff: 0, 86, 3.788056 
atom, coeffidx, coeff: 0, 87, 0.000000 
atom, coeffidx, coeff: 0, 88, 0.000000 
atom, coeffidx, coeff: 0, 89, 0.000000 
atom, coeffidx, coeff: 0, 90, 0.000000 
atom, coeffidx, coeff: 0, 91, 0.000000 
atom, coeffidx, coeff: 0, 92, 0.000000 
atom, coeffidx, coeff: 0, 93, 0.000000 
atom, coeffidx, coeff: 0, 94, 0.000000 
atom, coeffidx, coeff: 0, 95, 0.000000 
atom, coeffidx, coeff: 0, 96, 0.000000 
atom, coeffidx, coeff: 0, 97, 0.000000 
atom, coeffidx, coeff: 0, 98, 0.000000 
atom, coeffidx, coeff: 0, 99, 0.000000 
atom, coeffidx, coeff: 0, 100, 0.000000 
atom, coeffidx, coeff: 0, 101, 0.000000 
atom, coeffidx, coeff: 0, 102, 0.000000 
atom, coeffidx, coeff: 0, 103, 0.000000 
atom, coeffidx, coeff: 0, 104, 0.000000 
atom, coeffidx, coeff: 0, 105, 0.000000 
atom, coeffidx, coeff: 0, 106, 0.000000 
atom, coeffidx, coeff: 0, 107, 0.000000 
atom, coeffidx, coeff: 0, 108, 0.000000 
atom, coeffidx, coeff: 0, 109, 0.000000 
atom, coeffidx, coeff: 0, 110, 0.000000 
atom, coeffidx, coeff: 0, 111, 0.000000 
atom, coeffidx, coeff: 0, 112, 0.000000 
atom, coeffidx, coeff: 0, 113, 0.000000 
atom, coeffidx, coeff: 0, 114, 0.000000 
atom, coeffidx, coeff: 0, 115, 0.000000 
atom, coeffidx, coeff: 0, 116, 0.000000 
atom, coeffidx, coeff: 0, 117, 0.000000 
atom, coeffidx, coeff: 0, 118, 0.000000 
atom, coeffidx, coeff: 0, 119, 0.000000 
atom, coeffidx, coeff: 0, 120, 0.000000 
atom, coeffidx, coeff: 0, 121, 0.000000 
atom, coeffidx, coeff: 0, 122, 0.000000 
atom, coeffidx, coeff: 0, 123, 0.000000 
atom, coeffidx, coeff: 0, 124, 0.000000 
atom, coeffidx, coeff: 0, 125, 0.000000 
atom, coeffidx, coeff: 0, 126, 0.000000 
atom, coeffidx, coeff: 0, 127, 0.000000 
atom, coeffidx, coeff: 0, 128, 0.000000 
atom, coeffidx, coeff: 0, 129, 0.000000 
atom, coeffidx, coeff: 0, 130, 0.000000 
atom, coeffidx, coeff: 0, 131, 0.000000 
atom, coeffidx, coeff: 0, 132, 0.000000 
atom, coeffidx, coeff: 0, 133, 0.000000 
atom, coeffidx, coeff: 0, 134, 0.000000 
atom, coeffidx, coeff: 0, 135, 0.000000 
atom, coeffidx, coeff: 0, 136, 0.000000 
atom, coeffidx, coeff: 0, 137, 0.000000 
atom, coeffidx, coeff: 0, 138, 0.000000 
atom, coeffidx, coeff: 0, 139, 0.000000 
atom, coeffidx, coeff: 0, 140, 0.000000 
atom, coeffidx, coeff: 0, 141, 0.000000 
atom, coeffidx, coeff: 0, 142, 0.000000 
atom, coeffidx, coeff: 0, 143, 0.000000 
atom, coeffidx, coeff: 0, 144, 0.000000 
atom, coeffidx, coeff: 0, 145, 0.000000 
atom, coeffidx, coeff: 0, 146, 0.000000 
atom, coeffidx, coeff: 0, 147, 0.000000 
atom, coeffidx, coeff: 0, 148, 0.000000 
atom, coeffidx, coeff: 0, 149, 0.000000 
atom, coeffidx, coeff: 0, 150, 0.000000 
atom, coeffidx, coeff: 0, 151, 0.000000 
atom, coeffidx, coeff: 0, 152, 0.000000 
atom, coeffidx, coeff: 0, 153, 0.000000 
atom, coeffidx, coeff: 0, 154, 0.000000 
atom, coeffidx, coeff: 0, 155, 0.000000 
atom, coeffidx, coeff: 0, 156, 0.000000 
atom, coeffidx, coeff: 0, 157, 0.000000 
atom, coeffidx, coeff: 0, 158, 0.000000 
atom, coeffidx, coeff: 0, 159, 207.367668 
atom, coeffidx, coeff: 0, 160, 3.275824 
atom, coeffidx, coeff: 0, 161, 106.733575 
atom, coeffidx, coeff: 0, 162, 19.494946 
atom, coeffidx, coeff: 0, 163, 1.553116 
atom, coeffidx, coeff: 0, 164, 19.888366 
atom, coeffidx, coeff: 0, 165, 1.832749 
atom, coeffidx, coeff: 0, 166, 0.758548 
atom, coeffidx, coeff: 0, 167, 3.788056 
function index: 0 
function index: 1 
function index: 2 
function index: 3 
function index: 4 
function index: 5 
atom, coeffidx, coeff: 1, 0, 0.000000 
atom, coeffidx, coeff: 1, 1, 0.000000 
atom, coeffidx, coeff: 1, 2, 14.255807 
atom, coeffidx, coeff: 1, 3, 0.000000 
atom, coeffidx, coeff: 1, 4, 0.000000 
atom, coeffidx, coeff: 1, 5, 14.255807 
atom, coeffidx, coeff: 1, 6, 0.000000 
atom, coeffidx, coeff: 1, 7, 0.000000 
atom, coeffidx, coeff: 1, 8, 0.000000 
atom, coeffidx, coeff: 1, 9, 0.000000 
atom, coeffidx, coeff: 1, 10, 0.000000 
atom, coeffidx, coeff: 1, 11, 0.000000 
atom, coeffidx, coeff: 1, 12, 0.000000 
atom, coeffidx, coeff: 1, 13, 0.000000 
atom, coeffidx, coeff: 1, 14, 0.000000 
atom, coeffidx, coeff: 1, 15, 0.000000 
atom, coeffidx, coeff: 1, 16, 0.000000 
atom, coeffidx, coeff: 1, 17, 0.000000 
atom, coeffidx, coeff: 1, 18, 0.000000 
atom, coeffidx, coeff: 1, 19, 0.000000 
atom, coeffidx, coeff: 1, 20, 0.000000 
atom, coeffidx, coeff: 1, 21, 0.000000 
atom, coeffidx, coeff: 1, 22, 0.000000 
atom, coeffidx, coeff: 1, 23, 0.000000 
atom, coeffidx, coeff: 1, 24, 0.000000 
atom, coeffidx, coeff: 1, 25, 0.000000 
atom, coeffidx, coeff: 1, 26, 0.000000 
atom, coeffidx, coeff: 1, 27, 0.000000 
atom, coeffidx, coeff: 1, 28, 0.000000 
atom, coeffidx, coeff: 1, 29, 0.000000 
atom, coeffidx, coeff: 1, 30, 0.000000 
atom, coeffidx, coeff: 1, 31, 0.000000 
atom, coeffidx, coeff: 1, 32, 0.000000 
atom, coeffidx, coeff: 1, 33, 0.000000 
atom, coeffidx, coeff: 1, 34, 0.000000 
atom, coeffidx, coeff: 1, 35, 0.000000 
atom, coeffidx, coeff: 1, 36, 0.000000 
atom, coeffidx, coeff: 1, 37, 0.000000 
atom, coeffidx, coeff: 1, 38, 0.000000 
atom, coeffidx, coeff: 1, 39, 0.000000 
atom, coeffidx, coeff: 1, 40, 0.000000 
atom, coeffidx, coeff: 1, 41, 0.000000 
atom, coeffidx, coeff: 1, 42, 0.000000 
atom, coeffidx, coeff: 1, 43, 0.000000 
atom, coeffidx, coeff: 1, 44, 0.000000 
atom, coeffidx, coeff: 1, 45, 0.000000 
atom, coeffidx, coeff: 1, 46, 0.000000 
atom, coeffidx, coeff: 1, 47, 0.000000 
atom, coeffidx, coeff: 1, 48, 0.000000 
atom, coeffidx, coeff: 1, 49, 0.000000 
atom, coeffidx, coeff: 1, 50, 0.000000 
atom, coeffidx, coeff: 1, 51, 0.000000 
atom, coeffidx, coeff: 1, 52, 0.000000 
atom, coeffidx, coeff: 1, 53, 0.000000 
atom, coeffidx, coeff: 1, 54, 0.000000 
atom, coeffidx, coeff: 1, 55, 0.000000 
atom, coeffidx, coeff: 1, 56, 0.000000 
atom, coeffidx, coeff: 1, 57, 0.000000 
atom, coeffidx, coeff: 1, 58, 0.000000 
atom, coeffidx, coeff: 1, 59, 0.000000 
atom, coeffidx, coeff: 1, 60, 0.000000 
atom, coeffidx, coeff: 1, 61, 0.000000 
atom, coeffidx, coeff: 1, 62, 0.000000 
atom, coeffidx, coeff: 1, 63, 0.000000 
atom, coeffidx, coeff: 1, 64, 0.000000 
atom, coeffidx, coeff: 1, 65, 0.000000 
atom, coeffidx, coeff: 1, 66, 0.000000 
atom, coeffidx, coeff: 1, 67, 0.000000 
atom, coeffidx, coeff: 1, 68, 0.000000 
atom, coeffidx, coeff: 1, 69, 0.000000 
atom, coeffidx, coeff: 1, 70, 0.000000 
atom, coeffidx, coeff: 1, 71, 0.000000 
atom, coeffidx, coeff: 1, 72, 0.000000 
atom, coeffidx, coeff: 1, 73, 0.000000 
atom, coeffidx, coeff: 1, 74, 0.000000 
atom, coeffidx, coeff: 1, 75, 0.000000 
atom, coeffidx, coeff: 1, 76, 0.000000 
atom, coeffidx, coeff: 1, 77, 0.000000 
atom, coeffidx, coeff: 1, 78, 203.228042 
atom, coeffidx, coeff: 1, 79, 1.890034 
atom, coeffidx, coeff: 1, 80, 47.278431 
atom, coeffidx, coeff: 1, 81, 25.988952 
atom, coeffidx, coeff: 1, 82, 0.615711 
atom, coeffidx, coeff: 1, 83, 11.947196 
atom, coeffidx, coeff: 1, 84, 3.323486 
atom, coeffidx, coeff: 1, 85, 0.204368 
atom, coeffidx, coeff: 1, 86, 3.023363 
atom, coeffidx, coeff: 1, 87, 0.000000 
atom, coeffidx, coeff: 1, 88, 0.000000 
atom, coeffidx, coeff: 1, 89, 0.000000 
atom, coeffidx, coeff: 1, 90, 0.000000 
atom, coeffidx, coeff: 1, 91, 0.000000 
atom, coeffidx, coeff: 1, 92, 0.000000 
atom, coeffidx, coeff: 1, 93, 0.000000 
atom, coeffidx, coeff: 1, 94, 0.000000 
atom, coeffidx, coeff: 1, 95, 0.000000 
atom, coeffidx, coeff: 1, 96, 0.000000 
atom, coeffidx, coeff: 1, 97, 0.000000 
atom, coeffidx, coeff: 1, 98, 0.000000 
atom, coeffidx, coeff: 1, 99, 0.000000 
atom, coeffidx, coeff: 1, 100, 0.000000 
atom, coeffidx, coeff: 1, 101, 0.000000 
atom, coeffidx, coeff: 1, 102, 0.000000 
atom, coeffidx, coeff: 1, 103, 0.000000 
atom, coeffidx, coeff: 1, 104, 0.000000 
atom, coeffidx, coeff: 1, 105, 0.000000 
atom, coeffidx, coeff: 1, 106, 0.000000 
atom, coeffidx, coeff: 1, 107, 0.000000 
atom, coeffidx, coeff: 1, 108, 0.000000 
atom, coeffidx, coeff: 1, 109, 0.000000 
atom, coeffidx, coeff: 1, 110, 0.000000 
atom, coeffidx, coeff: 1, 111, 0.000000 
atom, coeffidx, coeff: 1, 112, 0.000000 
atom, coeffidx, coeff: 1, 113, 0.000000 
atom, coeffidx, coeff: 1, 114, 0.000000 
atom, coeffidx, coeff: 1, 115, 0.000000 
atom, coeffidx, coeff: 1, 116, 0.000000 
atom, coeffidx, coeff: 1, 117, 0.000000 
atom, coeffidx, coeff: 1, 118, 0.000000 
atom, coeffidx, coeff: 1, 119, 0.000000 
atom, coeffidx, coeff: 1, 120, 0.000000 
atom, coeffidx, coeff: 1, 121, 0.000000 
atom, coeffidx, coeff: 1, 122, 0.000000 
atom, coeffidx, coeff: 1, 123, 0.000000 
atom, coeffidx, coeff: 1, 124, 0.000000 
atom, coeffidx, coeff: 1, 125, 0.000000 
atom, coeffidx, coeff: 1, 126, 0.000000 
atom, coeffidx, coeff: 1, 127, 0.000000 
atom, coeffidx, coeff: 1, 128, 0.000000 
atom, coeffidx, coeff: 1, 129, 0.000000 
atom, coeffidx, coeff: 1, 130, 0.000000 
atom, coeffidx, coeff: 1, 131, 0.000000 
atom, coeffidx, coeff: 1, 132, 0.000000 
atom, coeffidx, coeff: 1, 133, 0.000000 
atom, coeffidx, coeff: 1, 134, 0.000000 
atom, coeffidx, coeff: 1, 135, 0.000000 
atom, coeffidx, coeff: 1, 136, 0.000000 
atom, coeffidx, coeff: 1, 137, 0.000000 
atom, coeffidx, coeff: 1, 138, 0.000000 
atom, coeffidx, coeff: 1, 139, 0.000000 
atom, coeffidx, coeff: 1, 140, 0.000000 
atom, coeffidx, coeff: 1, 141, 0.000000 
atom, coeffidx, coeff: 1, 142, 0.000000 
atom, coeffidx, coeff: 1, 143, 0.000000 
atom, coeffidx, coeff: 1, 144, 0.000000 
atom, coeffidx, coeff: 1, 145, 0.000000 
atom, coeffidx, coeff: 1, 146, 0.000000 
atom, coeffidx, coeff: 1, 147, 0.000000 
atom, coeffidx, coeff: 1, 148, 0.000000 
atom, coeffidx, coeff: 1, 149, 0.000000 
atom, coeffidx, coeff: 1, 150, 0.000000 
atom, coeffidx, coeff: 1, 151, 0.000000 
atom, coeffidx, coeff: 1, 152, 0.000000 
atom, coeffidx, coeff: 1, 153, 0.000000 
atom, coeffidx, coeff: 1, 154, 0.000000 
atom, coeffidx, coeff: 1, 155, 0.000000 
atom, coeffidx, coeff: 1, 156, 0.000000 
atom, coeffidx, coeff: 1, 157, 0.000000 
atom, coeffidx, coeff: 1, 158, 0.000000 
atom, coeffidx, coeff: 1, 159, 203.228042 
atom, coeffidx, coeff: 1, 160, 1.890034 
atom, coeffidx, coeff: 1, 161, 47.278431 
atom, coeffidx, coeff: 1, 162, 25.988952 
atom, coeffidx, coeff: 1, 163, 0.615711 
atom, coeffidx, coeff: 1, 164, 11.947196 
atom, coeffidx, coeff: 1, 165, 3.323486 
atom, coeffidx, coeff: 1, 166, 0.204368 
atom, coeffidx, coeff: 1, 167, 3.023363 
function index: 0 
function index: 1 
function index: 2 
function index: 3 
function index: 4 
function index: 5 
atom, coeffidx, coeff: 2, 0, 0.000000 
atom, coeffidx, coeff: 2, 1, 0.000000 
atom, coeffidx, coeff: 2, 2, 14.366611 
atom, coeffidx, coeff: 2, 3, 0.000000 
atom, coeffidx, coeff: 2, 4, 0.000000 
atom, coeffidx, coeff: 2, 5, 14.366611 
atom, coeffidx, coeff: 2, 6, 0.000000 
atom, coeffidx, coeff: 2, 7, 0.000000 
atom, coeffidx, coeff: 2, 8, 0.000000 
atom, coeffidx, coeff: 2, 9, 0.000000 
atom, coeffidx, coeff: 2, 10, 0.000000 
atom, coeffidx, coeff: 2, 11, 0.000000 
atom, coeffidx, coeff: 2, 12, 0.000000 
atom, coeffidx, coeff: 2, 13, 0.000000 
atom, coeffidx, coeff: 2, 14, 0.000000 
atom, coeffidx, coeff: 2, 15, 0.000000 
atom, coeffidx, coeff: 2, 16, 0.000000 
atom, coeffidx, coeff: 2, 17, 0.000000 
atom, coeffidx, coeff: 2, 18, 0.000000 
atom, coeffidx, coeff: 2, 19, 0.000000 
atom, coeffidx, coeff: 2, 20, 0.000000 
atom, coeffidx, coeff: 2, 21, 0.000000 
atom, coeffidx, coeff: 2, 22, 0.000000 
atom, coeffidx, coeff: 2, 23, 0.000000 
atom, coeffidx, coeff: 2, 24, 0.000000 
atom, coeffidx, coeff: 2, 25, 0.000000 
atom, coeffidx, coeff: 2, 26, 0.000000 
atom, coeffidx, coeff: 2, 27, 0.000000 
atom, coeffidx, coeff: 2, 28, 0.000000 
atom, coeffidx, coeff: 2, 29, 0.000000 
atom, coeffidx, coeff: 2, 30, 0.000000 
atom, coeffidx, coeff: 2, 31, 0.000000 
atom, coeffidx, coeff: 2, 32, 0.000000 
atom, coeffidx, coeff: 2, 33, 0.000000 
atom, coeffidx, coeff: 2, 34, 0.000000 
atom, coeffidx, coeff: 2, 35, 0.000000 
atom, coeffidx, coeff: 2, 36, 0.000000 
atom, coeffidx, coeff: 2, 37, 0.000000 
atom, coeffidx, coeff: 2, 38, 0.000000 
atom, coeffidx, coeff: 2, 39, 0.000000 
atom, coeffidx, coeff: 2, 40, 0.000000 
atom, coeffidx, coeff: 2, 41, 0.000000 
atom, coeffidx, coeff: 2, 42, 0.000000 
atom, coeffidx, coeff: 2, 43, 0.000000 
atom, coeffidx, coeff: 2, 44, 0.000000 
atom, coeffidx, coeff: 2, 45, 0.000000 
atom, coeffidx, coeff: 2, 46, 0.000000 
atom, coeffidx, coeff: 2, 47, 0.000000 
atom, coeffidx, coeff: 2, 48, 0.000000 
atom, coeffidx, coeff: 2, 49, 0.000000 
atom, coeffidx, coeff: 2, 50, 0.000000 
atom, coeffidx, coeff: 2, 51, 0.000000 
atom, coeffidx, coeff: 2, 52, 0.000000 
atom, coeffidx, coeff: 2, 53, 0.000000 
atom, coeffidx, coeff: 2, 54, 0.000000 
atom, coeffidx, coeff: 2, 55, 0.000000 
atom, coeffidx, coeff: 2, 56, 0.000000 
atom, coeffidx, coeff: 2, 57, 0.000000 
atom, coeffidx, coeff: 2, 58, 0.000000 
atom, coeffidx, coeff: 2, 59, 0.000000 
atom, coeffidx, coeff: 2, 60, 0.000000 
atom, coeffidx, coeff: 2, 61, 0.000000 
atom, coeffidx, coeff: 2, 62, 0.000000 
atom, coeffidx, coeff: 2, 63, 0.000000 
atom, coeffidx, coeff: 2, 64, 0.000000 
atom, coeffidx, coeff: 2, 65, 0.000000 
atom, coeffidx, coeff: 2, 66, 0.000000 
atom, coeffidx, coeff: 2, 67, 0.000000 
atom, coeffidx, coeff: 2, 68, 0.000000 
atom, coeffidx, coeff: 2, 69, 0.000000 
atom, coeffidx, coeff: 2, 70, 0.000000 
atom, coeffidx, coeff: 2, 71, 0.000000 
atom, coeffidx, coeff: 2, 72, 0.000000 
atom, coeffidx, coeff: 2, 73, 0.000000 
atom, coeffidx, coeff: 2, 74, 0.000000 
atom, coeffidx, coeff: 2, 75, 0.000000 
atom, coeffidx, coeff: 2, 76, 0.000000 
atom, coeffidx, coeff: 2, 77, 0.000000 
atom, coeffidx, coeff: 2, 78, 206.399519 
atom, coeffidx, coeff: 2, 79, 2.723117 
atom, coeffidx, coeff: 2, 80, 109.715456 
atom, coeffidx, coeff: 2, 81, 21.627317 
atom, coeffidx, coeff: 2, 82, 1.372730 
atom, coeffidx, coeff: 2, 83, 22.515177 
atom, coeffidx, coeff: 2, 84, 2.266191 
atom, coeffidx, coeff: 2, 85, 0.710998 
atom, coeffidx, coeff: 2, 86, 4.754766 
atom, coeffidx, coeff: 2, 87, 0.000000 
atom, coeffidx, coeff: 2, 88, 0.000000 
atom, coeffidx, coeff: 2, 89, 0.000000 
atom, coeffidx, coeff: 2, 90, 0.000000 
atom, coeffidx, coeff: 2, 91, 0.000000 
atom, coeffidx, coeff: 2, 92, 0.000000 
atom, coeffidx, coeff: 2, 93, 0.000000 
atom, coeffidx, coeff: 2, 94, 0.000000 
atom, coeffidx, coeff: 2, 95, 0.000000 
atom, coeffidx, coeff: 2, 96, 0.000000 
atom, coeffidx, coeff: 2, 97, 0.000000 
atom, coeffidx, coeff: 2, 98, 0.000000 
atom, coeffidx, coeff: 2, 99, 0.000000 
atom, coeffidx, coeff: 2, 100, 0.000000 
atom, coeffidx, coeff: 2, 101, 0.000000 
atom, coeffidx, coeff: 2, 102, 0.000000 
atom, coeffidx, coeff: 2, 103, 0.000000 
atom, coeffidx, coeff: 2, 104, 0.000000 
atom, coeffidx, coeff: 2, 105, 0.000000 
atom, coeffidx, coeff: 2, 106, 0.000000 
atom, coeffidx, coeff: 2, 107, 0.000000 
atom, coeffidx, coeff: 2, 108, 0.000000 
atom, coeffidx, coeff: 2, 109, 0.000000 
atom, coeffidx, coeff: 2, 110, 0.000000 
atom, coeffidx, coeff: 2, 111, 0.000000 
atom, coeffidx, coeff: 2, 112, 0.000000 
atom, coeffidx, coeff: 2, 113, 0.000000 
atom, coeffidx, coeff: 2, 114, 0.000000 
atom, coeffidx, coeff: 2, 115, 0.000000 
atom, coeffidx, coeff: 2, 116, 0.000000 
atom, coeffidx, coeff: 2, 117, 0.000000 
atom, coeffidx, coeff: 2, 118, 0.000000 
atom, coeffidx, coeff: 2, 119, 0.000000 
atom, coeffidx, coeff: 2, 120, 0.000000 
atom, coeffidx, coeff: 2, 121, 0.000000 
atom, coeffidx, coeff: 2, 122, 0.000000 
atom, coeffidx, coeff: 2, 123, 0.000000 
atom, coeffidx, coeff: 2, 124, 0.000000 
atom, coeffidx, coeff: 2, 125, 0.000000 
atom, coeffidx, coeff: 2, 126, 0.000000 
atom, coeffidx, coeff: 2, 127, 0.000000 
atom, coeffidx, coeff: 2, 128, 0.000000 
atom, coeffidx, coeff: 2, 129, 0.000000 
atom, coeffidx, coeff: 2, 130, 0.000000 
atom, coeffidx, coeff: 2, 131, 0.000000 
atom, coeffidx, coeff: 2, 132, 0.000000 
atom, coeffidx, coeff: 2, 133, 0.000000 
atom, coeffidx, coeff: 2, 134, 0.000000 
atom, coeffidx, coeff: 2, 135, 0.000000 
atom, coeffidx, coeff: 2, 136, 0.000000 
atom, coeffidx, coeff: 2, 137, 0.000000 
atom, coeffidx, coeff: 2, 138, 0.000000 
atom, coeffidx, coeff: 2, 139, 0.000000 
atom, coeffidx, coeff: 2, 140, 0.000000 
atom, coeffidx, coeff: 2, 141, 0.000000 
atom, coeffidx, coeff: 2, 142, 0.000000 
atom, coeffidx, coeff: 2, 143, 0.000000 
atom, coeffidx, coeff: 2, 144, 0.000000 
atom, coeffidx, coeff: 2, 145, 0.000000 
atom, coeffidx, coeff: 2, 146, 0.000000 
atom, coeffidx, coeff: 2, 147, 0.000000 
atom, coeffidx, coeff: 2, 148, 0.000000 
atom, coeffidx, coeff: 2, 149, 0.000000 
atom, coeffidx, coeff: 2, 150, 0.000000 
atom, coeffidx, coeff: 2, 151, 0.000000 
atom, coeffidx, coeff: 2, 152, 0.000000 
atom, coeffidx, coeff: 2, 153, 0.000000 
atom, coeffidx, coeff: 2, 154, 0.000000 
atom, coeffidx, coeff: 2, 155, 0.000000 
atom, coeffidx, coeff: 2, 156, 0.000000 
atom, coeffidx, coeff: 2, 157, 0.000000 
atom, coeffidx, coeff: 2, 158, 0.000000 
atom, coeffidx, coeff: 2, 159, 206.399519 
atom, coeffidx, coeff: 2, 160, 2.723117 
atom, coeffidx, coeff: 2, 161, 109.715456 
atom, coeffidx, coeff: 2, 162, 21.627317 
atom, coeffidx, coeff: 2, 163, 1.372730 
atom, coeffidx, coeff: 2, 164, 22.515177 
atom, coeffidx, coeff: 2, 165, 2.266191 
atom, coeffidx, coeff: 2, 166, 0.710998 
atom, coeffidx, coeff: 2, 167, 4.754766 
function index: 0 
function index: 1 
function index: 2 
function index: 3 
function index: 4 
function index: 5 
atom, coeffidx, coeff: 3, 0, 0.000000 
atom, coeffidx, coeff: 3, 1, 0.000000 
atom, coeffidx, coeff: 3, 2, 14.139259 
atom, coeffidx, coeff: 3, 3, 0.000000 
atom, coeffidx, coeff: 3, 4, 0.000000 
atom, coeffidx, coeff: 3, 5, 14.139259 
atom, coeffidx, coeff: 3, 6, 0.000000 
atom, coeffidx, coeff: 3, 7, 0.000000 
atom, coeffidx, coeff: 3, 8, 0.000000 
atom, coeffidx, coeff: 3, 9, 0.000000 
atom, coeffidx, coeff: 3, 10, 0.000000 
atom, coeffidx, coeff: 3, 11, 0.000000 
atom, coeffidx, coeff: 3, 12, 0.000000 
atom, coeffidx, coeff: 3, 13, 0.000000 
atom, coeffidx, coeff: 3, 14, 0.000000 
atom, coeffidx, coeff: 3, 15, 0.000000 
atom, coeffidx, coeff: 3, 16, 0.000000 
atom, coeffidx, coeff: 3, 17, 0.000000 
atom, coeffidx, coeff: 3, 18, 0.000000 
atom, coeffidx, coeff: 3, 19, 0.000000 
atom, coeffidx, coeff: 3, 20, 0.000000 
atom, coeffidx, coeff: 3, 21, 0.000000 
atom, coeffidx, coeff: 3, 22, 0.000000 
atom, coeffidx, coeff: 3, 23, 0.000000 
atom, coeffidx, coeff: 3, 24, 0.000000 
atom, coeffidx, coeff: 3, 25, 0.000000 
atom, coeffidx, coeff: 3, 26, 0.000000 
atom, coeffidx, coeff: 3, 27, 0.000000 
atom, coeffidx, coeff: 3, 28, 0.000000 
atom, coeffidx, coeff: 3, 29, 0.000000 
atom, coeffidx, coeff: 3, 30, 0.000000 
atom, coeffidx, coeff: 3, 31, 0.000000 
atom, coeffidx, coeff: 3, 32, 0.000000 
atom, coeffidx, coeff: 3, 33, 0.000000 
atom, coeffidx, coeff: 3, 34, 0.000000 
atom, coeffidx, coeff: 3, 35, 0.000000 
atom, coeffidx, coeff: 3, 36, 0.000000 
atom, coeffidx, coeff: 3, 37, 0.000000 
atom, coeffidx, coeff: 3, 38, 0.000000 
atom, coeffidx, coeff: 3, 39, 0.000000 
atom, coeffidx, coeff: 3, 40, 0.000000 
atom, coeffidx, coeff: 3, 41, 0.000000 
atom, coeffidx, coeff: 3, 42, 0.000000 
atom, coeffidx, coeff: 3, 43, 0.000000 
atom, coeffidx, coeff: 3, 44, 0.000000 
atom, coeffidx, coeff: 3, 45, 0.000000 
atom, coeffidx, coeff: 3, 46, 0.000000 
atom, coeffidx, coeff: 3, 47, 0.000000 
atom, coeffidx, coeff: 3, 48, 0.000000 
atom, coeffidx, coeff: 3, 49, 0.000000 
atom, coeffidx, coeff: 3, 50, 0.000000 
atom, coeffidx, coeff: 3, 51, 0.000000 
atom, coeffidx, coeff: 3, 52, 0.000000 
atom, coeffidx, coeff: 3, 53, 0.000000 
atom, coeffidx, coeff: 3, 54, 0.000000 
atom, coeffidx, coeff: 3, 55, 0.000000 
atom, coeffidx, coeff: 3, 56, 0.000000 
atom, coeffidx, coeff: 3, 57, 0.000000 
atom, coeffidx, coeff: 3, 58, 0.000000 
atom, coeffidx, coeff: 3, 59, 0.000000 
atom, coeffidx, coeff: 3, 60, 0.000000 
atom, coeffidx, coeff: 3, 61, 0.000000 
atom, coeffidx, coeff: 3, 62, 0.000000 
atom, coeffidx, coeff: 3, 63, 0.000000 
atom, coeffidx, coeff: 3, 64, 0.000000 
atom, coeffidx, coeff: 3, 65, 0.000000 
atom, coeffidx, coeff: 3, 66, 0.000000 
atom, coeffidx, coeff: 3, 67, 0.000000 
atom, coeffidx, coeff: 3, 68, 0.000000 
atom, coeffidx, coeff: 3, 69, 0.000000 
atom, coeffidx, coeff: 3, 70, 0.000000 
atom, coeffidx, coeff: 3, 71, 0.000000 
atom, coeffidx, coeff: 3, 72, 0.000000 
atom, coeffidx, coeff: 3, 73, 0.000000 
atom, coeffidx, coeff: 3, 74, 0.000000 
atom, coeffidx, coeff: 3, 75, 0.000000 
atom, coeffidx, coeff: 3, 76, 0.000000 
atom, coeffidx, coeff: 3, 77, 0.000000 
atom, coeffidx, coeff: 3, 78, 199.918645 
atom, coeffidx, coeff: 3, 79, 0.223757 
atom, coeffidx, coeff: 3, 80, 11.388182 
atom, coeffidx, coeff: 3, 81, 29.474021 
atom, coeffidx, coeff: 3, 82, 0.022791 
atom, coeffidx, coeff: 3, 83, 1.286266 
atom, coeffidx, coeff: 3, 84, 4.345357 
atom, coeffidx, coeff: 3, 85, 0.003553 
atom, coeffidx, coeff: 3, 86, 0.158949 
atom, coeffidx, coeff: 3, 87, 0.000000 
atom, coeffidx, coeff: 3, 88, 0.000000 
atom, coeffidx, coeff: 3, 89, 0.000000 
atom, coeffidx, coeff: 3, 90, 0.000000 
atom, coeffidx, coeff: 3, 91, 0.000000 
atom, coeffidx, coeff: 3, 92, 0.000000 
atom, coeffidx, coeff: 3, 93, 0.000000 
atom, coeffidx, coeff: 3, 94, 0.000000 
atom, coeffidx, coeff: 3, 95, 0.000000 
atom, coeffidx, coeff: 3, 96, 0.000000 
atom, coeffidx, coeff: 3, 97, 0.000000 
atom, coeffidx, coeff: 3, 98, 0.000000 
atom, coeffidx, coeff: 3, 99, 0.000000 
atom, coeffidx, coeff: 3, 100, 0.000000 
atom, coeffidx, coeff: 3, 101, 0.000000 
atom, coeffidx, coeff: 3, 102, 0.000000 
atom, coeffidx, coeff: 3, 103, 0.000000 
atom, coeffidx, coeff: 3, 104, 0.000000 
atom, coeffidx, coeff: 3, 105, 0.000000 
atom, coeffidx, coeff: 3, 106, 0.000000 
atom, coeffidx, coeff: 3, 107, 0.000000 
atom, coeffidx, coeff: 3, 108, 0.000000 
atom, coeffidx, coeff: 3, 109, 0.000000 
atom, coeffidx, coeff: 3, 110, 0.000000 
atom, coeffidx, coeff: 3, 111, 0.000000 
atom, coeffidx, coeff: 3, 112, 0.000000 
atom, coeffidx, coeff: 3, 113, 0.000000 
atom, coeffidx, coeff: 3, 114, 0.000000 
atom, coeffidx, coeff: 3, 115, 0.000000 
atom, coeffidx, coeff: 3, 116, 0.000000 
atom, coeffidx, coeff: 3, 117, 0.000000 
atom, coeffidx, coeff: 3, 118, 0.000000 
atom, coeffidx, coeff: 3, 119, 0.000000 
atom, coeffidx, coeff: 3, 120, 0.000000 
atom, coeffidx, coeff: 3, 121, 0.000000 
atom, coeffidx, coeff: 3, 122, 0.000000 
atom, coeffidx, coeff: 3, 123, 0.000000 
atom, coeffidx, coeff: 3, 124, 0.000000 
atom, coeffidx, coeff: 3, 125, 0.000000 
atom, coeffidx, coeff: 3, 126, 0.000000 
atom, coeffidx, coeff: 3, 127, 0.000000 
atom, coeffidx, coeff: 3, 128, 0.000000 
atom, coeffidx, coeff: 3, 129, 0.000000 
atom, coeffidx, coeff: 3, 130, 0.000000 
atom, coeffidx, coeff: 3, 131, 0.000000 
atom, coeffidx, coeff: 3, 132, 0.000000 
atom, coeffidx, coeff: 3, 133, 0.000000 
atom, coeffidx, coeff: 3, 134, 0.000000 
atom, coeffidx, coeff: 3, 135, 0.000000 
atom, coeffidx, coeff: 3, 136, 0.000000 
atom, coeffidx, coeff: 3, 137, 0.000000 
atom, coeffidx, coeff: 3, 138, 0.000000 
atom, coeffidx, coeff: 3, 139, 0.000000 
atom, coeffidx, coeff: 3, 140, 0.000000 
atom, coeffidx, coeff: 3, 141, 0.000000 
atom, coeffidx, coeff: 3, 142, 0.000000 
atom, coeffidx, coeff: 3, 143, 0.000000 
atom, coeffidx, coeff: 3, 144, 0.000000 
atom, coeffidx, coeff: 3, 145, 0.000000 
atom, coeffidx, coeff: 3, 146, 0.000000 
atom, coeffidx, coeff: 3, 147, 0.000000 
atom, coeffidx, coeff: 3, 148, 0.000000 
atom, coeffidx, coeff: 3, 149, 0.000000 
atom, coeffidx, coeff: 3, 150, 0.000000 
atom, coeffidx, coeff: 3, 151, 0.000000 
atom, coeffidx, coeff: 3, 152, 0.000000 
atom, coeffidx, coeff: 3, 153, 0.000000 
atom, coeffidx, coeff: 3, 154, 0.000000 
atom, coeffidx, coeff: 3, 155, 0.000000 
atom, coeffidx, coeff: 3, 156, 0.000000 
atom, coeffidx, coeff: 3, 157, 0.000000 
atom, coeffidx, coeff: 3, 158, 0.000000 
atom, coeffidx, coeff: 3, 159, 199.918645 
atom, coeffidx, coeff: 3, 160, 0.223757 
atom, coeffidx, coeff: 3, 161, 11.388182 
atom, coeffidx, coeff: 3, 162, 29.474021 
atom, coeffidx, coeff: 3, 163, 0.022791 
atom, coeffidx, coeff: 3, 164, 1.286266 
atom, coeffidx, coeff: 3, 165, 4.345357 
atom, coeffidx, coeff: 3, 166, 0.003553 
atom, coeffidx, coeff: 3, 167, 0.158949 
function index: 0 
function index: 1 
function index: 2 
function index: 3 
function index: 4 
function index: 5 
atom, coeffidx, coeff: 4, 0, 0.000000 
atom, coeffidx, coeff: 4, 1, 0.000000 
atom, coeffidx, coeff: 4, 2, 14.297889 
atom, coeffidx, coeff: 4, 3, 0.000000 
atom, coeffidx, coeff: 4, 4, 0.000000 
atom, coeffidx, coeff: 4, 5, 14.297889 
atom, coeffidx, coeff: 4, 6, 0.000000 
atom, coeffidx, coeff: 4, 7, 0.000000 
atom, coeffidx, coeff: 4, 8, 0.000000 
atom, coeffidx, coeff: 4, 9, 0.000000 
atom, coeffidx, coeff: 4, 10, 0.000000 
atom, coeffidx, coeff: 4, 11, 0.000000 
atom, coeffidx, coeff: 4, 12, 0.000000 
atom, coeffidx, coeff: 4, 13, 0.000000 
atom, coeffidx, coeff: 4, 14, 0.000000 
atom, coeffidx, coeff: 4, 15, 0.000000 
atom, coeffidx, coeff: 4, 16, 0.000000 
atom, coeffidx, coeff: 4, 17, 0.000000 
atom, coeffidx, coeff: 4, 18, 0.000000 
atom, coeffidx, coeff: 4, 19, 0.000000 
atom, coeffidx, coeff: 4, 20, 0.000000 
atom, coeffidx, coeff: 4, 21, 0.000000 
atom, coeffidx, coeff: 4, 22, 0.000000 
atom, coeffidx, coeff: 4, 23, 0.000000 
atom, coeffidx, coeff: 4, 24, 0.000000 
atom, coeffidx, coeff: 4, 25, 0.000000 
atom, coeffidx, coeff: 4, 26, 0.000000 
atom, coeffidx, coeff: 4, 27, 0.000000 
atom, coeffidx, coeff: 4, 28, 0.000000 
atom, coeffidx, coeff: 4, 29, 0.000000 
atom, coeffidx, coeff: 4, 30, 0.000000 
atom, coeffidx, coeff: 4, 31, 0.000000 
atom, coeffidx, coeff: 4, 32, 0.000000 
atom, coeffidx, coeff: 4, 33, 0.000000 
atom, coeffidx, coeff: 4, 34, 0.000000 
atom, coeffidx, coeff: 4, 35, 0.000000 
atom, coeffidx, coeff: 4, 36, 0.000000 
atom, coeffidx, coeff: 4, 37, 0.000000 
atom, coeffidx, coeff: 4, 38, 0.000000 
atom, coeffidx, coeff: 4, 39, 0.000000 
atom, coeffidx, coeff: 4, 40, 0.000000 
atom, coeffidx, coeff: 4, 41, 0.000000 
atom, coeffidx, coeff: 4, 42, 0.000000 
atom, coeffidx, coeff: 4, 43, 0.000000 
atom, coeffidx, coeff: 4, 44, 0.000000 
atom, coeffidx, coeff: 4, 45, 0.000000 
atom, coeffidx, coeff: 4, 46, 0.000000 
atom, coeffidx, coeff: 4, 47, 0.000000 
atom, coeffidx, coeff: 4, 48, 0.000000 
atom, coeffidx, coeff: 4, 49, 0.000000 
atom, coeffidx, coeff: 4, 50, 0.000000 
atom, coeffidx, coeff: 4, 51, 0.000000 
atom, coeffidx, coeff: 4, 52, 0.000000 
atom, coeffidx, coeff: 4, 53, 0.000000 
atom, coeffidx, coeff: 4, 54, 0.000000 
atom, coeffidx, coeff: 4, 55, 0.000000 
atom, coeffidx, coeff: 4, 56, 0.000000 
atom, coeffidx, coeff: 4, 57, 0.000000 
atom, coeffidx, coeff: 4, 58, 0.000000 
atom, coeffidx, coeff: 4, 59, 0.000000 
atom, coeffidx, coeff: 4, 60, 0.000000 
atom, coeffidx, coeff: 4, 61, 0.000000 
atom, coeffidx, coeff: 4, 62, 0.000000 
atom, coeffidx, coeff: 4, 63, 0.000000 
atom, coeffidx, coeff: 4, 64, 0.000000 
atom, coeffidx, coeff: 4, 65, 0.000000 
atom, coeffidx, coeff: 4, 66, 0.000000 
atom, coeffidx, coeff: 4, 67, 0.000000 
atom, coeffidx, coeff: 4, 68, 0.000000 
atom, coeffidx, coeff: 4, 69, 0.000000 
atom, coeffidx, coeff: 4, 70, 0.000000 
atom, coeffidx, coeff: 4, 71, 0.000000 
atom, coeffidx, coeff: 4, 72, 0.000000 
atom, coeffidx, coeff: 4, 73, 0.000000 
atom, coeffidx, coeff: 4, 74, 0.000000 
atom, coeffidx, coeff: 4, 75, 0.000000 
atom, coeffidx, coeff: 4, 76, 0.000000 
atom, coeffidx, coeff: 4, 77, 0.000000 
atom, coeffidx, coeff: 4, 78, 204.429621 
atom, coeffidx, coeff: 4, 79, 5.561476 
atom, coeffidx, coeff: 4, 80, 76.358948 
atom, coeffidx, coeff: 4, 81, 23.425394 
atom, coeffidx, coeff: 4, 82, 2.822311 
atom, coeffidx, coeff: 4, 83, 17.437752 
atom, coeffidx, coeff: 4, 84, 2.684294 
atom, coeffidx, coeff: 4, 85, 1.436039 
atom, coeffidx, coeff: 4, 86, 4.301501 
atom, coeffidx, coeff: 4, 87, 0.000000 
atom, coeffidx, coeff: 4, 88, 0.000000 
atom, coeffidx, coeff: 4, 89, 0.000000 
atom, coeffidx, coeff: 4, 90, 0.000000 
atom, coeffidx, coeff: 4, 91, 0.000000 
atom, coeffidx, coeff: 4, 92, 0.000000 
atom, coeffidx, coeff: 4, 93, 0.000000 
atom, coeffidx, coeff: 4, 94, 0.000000 
atom, coeffidx, coeff: 4, 95, 0.000000 
atom, coeffidx, coeff: 4, 96, 0.000000 
atom, coeffidx, coeff: 4, 97, 0.000000 
atom, coeffidx, coeff: 4, 98, 0.000000 
atom, coeffidx, coeff: 4, 99, 0.000000 
atom, coeffidx, coeff: 4, 100, 0.000000 
atom, coeffidx, coeff: 4, 101, 0.000000 
atom, coeffidx, coeff: 4, 102, 0.000000 
atom, coeffidx, coeff: 4, 103, 0.000000 
atom, coeffidx, coeff: 4, 104, 0.000000 
atom, coeffidx, coeff: 4, 105, 0.000000 
atom, coeffidx, coeff: 4, 106, 0.000000 
atom, coeffidx, coeff: 4, 107, 0.000000 
atom, coeffidx, coeff: 4, 108, 0.000000 
atom, coeffidx, coeff: 4, 109, 0.000000 
atom, coeffidx, coeff: 4, 110, 0.000000 
atom, coeffidx, coeff: 4, 111, 0.000000 
atom, coeffidx, coeff: 4, 112, 0.000000 
atom, coeffidx, coeff: 4, 113, 0.000000 
atom, coeffidx, coeff: 4, 114, 0.000000 
atom, coeffidx, coeff: 4, 115, 0.000000 
atom, coeffidx, coeff: 4, 116, 0.000000 
atom, coeffidx, coeff: 4, 117, 0.000000 
atom, coeffidx, coeff: 4, 118, 0.000000 
atom, coeffidx, coeff: 4, 119, 0.000000 
atom, coeffidx, coeff: 4, 120, 0.000000 
atom, coeffidx, coeff: 4, 121, 0.000000 
atom, coeffidx, coeff: 4, 122, 0.000000 
atom, coeffidx, coeff: 4, 123, 0.000000 
atom, coeffidx, coeff: 4, 124, 0.000000 
atom, coeffidx, coeff: 4, 125, 0.000000 
atom, coeffidx, coeff: 4, 126, 0.000000 
atom, coeffidx, coeff: 4, 127, 0.000000 
atom, coeffidx, coeff: 4, 128, 0.000000 
atom, coeffidx, coeff: 4, 129, 0.000000 
atom, coeffidx, coeff: 4, 130, 0.000000 
atom, coeffidx, coeff: 4, 131, 0.000000 
atom, coeffidx, coeff: 4, 132, 0.000000 
atom, coeffidx, coeff: 4, 133, 0.000000 
atom, coeffidx, coeff: 4, 134, 0.000000 
atom, coeffidx, coeff: 4, 135, 0.000000 
atom, coeffidx, coeff: 4, 136, 0.000000 
atom, coeffidx, coeff: 4, 137, 0.000000 
atom, coeffidx, coeff: 4, 138, 0.000000 
atom, coeffidx, coeff: 4, 139, 0.000000 
atom, coeffidx, coeff: 4, 140, 0.000000 
atom, coeffidx, coeff: 4, 141, 0.000000 
atom, coeffidx, coeff: 4, 142, 0.000000 
atom, coeffidx, coeff: 4, 143, 0.000000 
atom, coeffidx, coeff: 4, 144, 0.000000 
atom, coeffidx, coeff: 4, 145, 0.000000 
atom, coeffidx, coeff: 4, 146, 0.000000 
atom, coeffidx, coeff: 4, 147, 0.000000 
atom, coeffidx, coeff: 4, 148, 0.000000 
atom, coeffidx, coeff: 4, 149, 0.000000 
atom, coeffidx, coeff: 4, 150, 0.000000 
atom, coeffidx, coeff: 4, 151, 0.000000 
atom, coeffidx, coeff: 4, 152, 0.000000 
atom, coeffidx, coeff: 4, 153, 0.000000 
atom, coeffidx, coeff: 4, 154, 0.000000 
atom, coeffidx, coeff: 4, 155, 0.000000 
atom, coeffidx, coeff: 4, 156, 0.000000 
atom, coeffidx, coeff: 4, 157, 0.000000 
atom, coeffidx, coeff: 4, 158, 0.000000 
atom, coeffidx, coeff: 4, 159, 204.429621 
atom, coeffidx, coeff: 4, 160, 5.561476 
atom, coeffidx, coeff: 4, 161, 76.358948 
atom, coeffidx, coeff: 4, 162, 23.425394 
atom, coeffidx, coeff: 4, 163, 2.822311 
atom, coeffidx, coeff: 4, 164, 17.437752 
atom, coeffidx, coeff: 4, 165, 2.684294 
atom, coeffidx, coeff: 4, 166, 1.436039 
atom, coeffidx, coeff: 4, 167, 4.301501 
function index: 0 
function index: 1 
function index: 2 
function index: 3 
function index: 4 
function index: 5 
atom, coeffidx, coeff: 5, 0, 0.000000 
atom, coeffidx, coeff: 5, 1, 0.000000 
atom, coeffidx, coeff: 5, 2, 14.396341 
atom, coeffidx, coeff: 5, 3, 0.000000 
atom, coeffidx, coeff: 5, 4, 0.000000 
atom, coeffidx, coeff: 5, 5, 14.396341 
atom, coeffidx, coeff: 5, 6, 0.000000 
atom, coeffidx, coeff: 5, 7, 0.000000 
atom, coeffidx, coeff: 5, 8, 0.000000 
atom, coeffidx, coeff: 5, 9, 0.000000 
atom, coeffidx, coeff: 5, 10, 0.000000 
atom, coeffidx, coeff: 5, 11, 0.000000 
atom, coeffidx, coeff: 5, 12, 0.000000 
atom, coeffidx, coeff: 5, 13, 0.000000 
atom, coeffidx, coeff: 5, 14, 0.000000 
atom, coeffidx, coeff: 5, 15, 0.000000 
atom, coeffidx, coeff: 5, 16, 0.000000 
atom, coeffidx, coeff: 5, 17, 0.000000 
atom, coeffidx, coeff: 5, 18, 0.000000 
atom, coeffidx, coeff: 5, 19, 0.000000 
atom, coeffidx, coeff: 5, 20, 0.000000 
atom, coeffidx, coeff: 5, 21, 0.000000 
atom, coeffidx, coeff: 5, 22, 0.000000 
atom, coeffidx, coeff: 5, 23, 0.000000 
atom, coeffidx, coeff: 5, 24, 0.000000 
atom, coeffidx, coeff: 5, 25, 0.000000 
atom, coeffidx, coeff: 5, 26, 0.000000 
atom, coeffidx, coeff: 5, 27, 0.000000 
atom, coeffidx, coeff: 5, 28, 0.000000 
atom, coeffidx, coeff: 5, 29, 0.000000 
atom, coeffidx, coeff: 5, 30, 0.000000 
atom, coeffidx, coeff: 5, 31, 0.000000 
atom, coeffidx, coeff: 5, 32, 0.000000 
atom, coeffidx, coeff: 5, 33, 0.000000 
atom, coeffidx, coeff: 5, 34, 0.000000 
atom, coeffidx, coeff: 5, 35, 0.000000 
atom, coeffidx, coeff: 5, 36, 0.000000 
atom, coeffidx, coeff: 5, 37, 0.000000 
atom, coeffidx, coeff: 5, 38, 0.000000 
atom, coeffidx, coeff: 5, 39, 0.000000 
atom, coeffidx, coeff: 5, 40, 0.000000 
atom, coeffidx, coeff: 5, 41, 0.000000 
atom, coeffidx, coeff: 5, 42, 0.000000 
atom, coeffidx, coeff: 5, 43, 0.000000 
atom, coeffidx, coeff: 5, 44, 0.000000 
atom, coeffidx, coeff: 5, 45, 0.000000 
atom, coeffidx, coeff: 5, 46, 0.000000 
atom, coeffidx, coeff: 5, 47, 0.000000 
atom, coeffidx, coeff: 5, 48, 0.000000 
atom, coeffidx, coeff: 5, 49, 0.000000 
atom, coeffidx, coeff: 5, 50, 0.000000 
atom, coeffidx, coeff: 5, 51, 0.000000 
atom, coeffidx, coeff: 5, 52, 0.000000 
atom, coeffidx, coeff: 5, 53, 0.000000 
atom, coeffidx, coeff: 5, 54, 0.000000 
atom, coeffidx, coeff: 5, 55, 0.000000 
atom, coeffidx, coeff: 5, 56, 0.000000 
atom, coeffidx, coeff: 5, 57, 0.000000 
atom, coeffidx, coeff: 5, 58, 0.000000 
atom, coeffidx, coeff: 5, 59, 0.000000 
atom, coeffidx, coeff: 5, 60, 0.000000 
atom, coeffidx, coeff: 5, 61, 0.000000 
atom, coeffidx, coeff: 5, 62, 0.000000 
atom, coeffidx, coeff: 5, 63, 0.000000 
atom, coeffidx, coeff: 5, 64, 0.000000 
atom, coeffidx, coeff: 5, 65, 0.000000 
atom, coeffidx, coeff: 5, 66, 0.000000 
atom, coeffidx, coeff: 5, 67, 0.000000 
atom, coeffidx, coeff: 5, 68, 0.000000 
atom, coeffidx, coeff: 5, 69, 0.000000 
atom, coeffidx, coeff: 5, 70, 0.000000 
atom, coeffidx, coeff: 5, 71, 0.000000 
atom, coeffidx, coeff: 5, 72, 0.000000 
atom, coeffidx, coeff: 5, 73, 0.000000 
atom, coeffidx, coeff: 5, 74, 0.000000 
atom, coeffidx, coeff: 5, 75, 0.000000 
atom, coeffidx, coeff: 5, 76, 0.000000 
atom, coeffidx, coeff: 5, 77, 0.000000 
atom, coeffidx, coeff: 5, 78, 207.254645 
atom, coeffidx, coeff: 5, 79, 11.149606 
atom, coeffidx, coeff: 5, 80, 11.826462 
atom, coeffidx, coeff: 5, 81, 22.251257 
atom, coeffidx, coeff: 5, 82, 5.189702 
atom, coeffidx, coeff: 5, 83, 4.687072 
atom, coeffidx, coeff: 5, 84, 2.388938 
atom, coeffidx, coeff: 5, 85, 2.423506 
atom, coeffidx, coeff: 5, 86, 2.027119 
atom, coeffidx, coeff: 5, 87, 0.000000 
atom, coeffidx, coeff: 5, 88, 0.000000 
atom, coeffidx, coeff: 5, 89, 0.000000 
atom, coeffidx, coeff: 5, 90, 0.000000 
atom, coeffidx, coeff: 5, 91, 0.000000 
atom, coeffidx, coeff: 5, 92, 0.000000 
atom, coeffidx, coeff: 5, 93, 0.000000 
atom, coeffidx, coeff: 5, 94, 0.000000 
atom, coeffidx, coeff: 5, 95, 0.000000 
atom, coeffidx, coeff: 5, 96, 0.000000 
atom, coeffidx, coeff: 5, 97, 0.000000 
atom, coeffidx, coeff: 5, 98, 0.000000 
atom, coeffidx, coeff: 5, 99, 0.000000 
atom, coeffidx, coeff: 5, 100, 0.000000 
atom, coeffidx, coeff: 5, 101, 0.000000 
atom, coeffidx, coeff: 5, 102, 0.000000 
atom, coeffidx, coeff: 5, 103, 0.000000 
atom, coeffidx, coeff: 5, 104, 0.000000 
atom, coeffidx, coeff: 5, 105, 0.000000 
atom, coeffidx, coeff: 5, 106, 0.000000 
atom, coeffidx, coeff: 5, 107, 0.000000 
atom, coeffidx, coeff: 5, 108, 0.000000 
atom, coeffidx, coeff: 5, 109, 0.000000 
atom, coeffidx, coeff: 5, 110, 0.000000 
atom, coeffidx, coeff: 5, 111, 0.000000 
atom, coeffidx, coeff: 5, 112, 0.000000 
atom, coeffidx, coeff: 5, 113, 0.000000 
atom, coeffidx, coeff: 5, 114, 0.000000 
atom, coeffidx, coeff: 5, 115, 0.000000 
atom, coeffidx, coeff: 5, 116, 0.000000 
atom, coeffidx, coeff: 5, 117, 0.000000 
atom, coeffidx, coeff: 5, 118, 0.000000 
atom, coeffidx, coeff: 5, 119, 0.000000 
atom, coeffidx, coeff: 5, 120, 0.000000 
atom, coeffidx, coeff: 5, 121, 0.000000 
atom, coeffidx, coeff: 5, 122, 0.000000 
atom, coeffidx, coeff: 5, 123, 0.000000 
atom, coeffidx, coeff: 5, 124, 0.000000 
atom, coeffidx, coeff: 5, 125, 0.000000 
atom, coeffidx, coeff: 5, 126, 0.000000 
atom, coeffidx, coeff: 5, 127, 0.000000 
atom, coeffidx, coeff: 5, 128, 0.000000 
atom, coeffidx, coeff: 5, 129, 0.000000 
atom, coeffidx, coeff: 5, 130, 0.000000 
atom, coeffidx, coeff: 5, 131, 0.000000 
atom, coeffidx, coeff: 5, 132, 0.000000 
atom, coeffidx, coeff: 5, 133, 0.000000 
atom, coeffidx, coeff: 5, 134, 0.000000 
atom, coeffidx, coeff: 5, 135, 0.000000 
atom, coeffidx, coeff: 5, 136, 0.000000 
atom, coeffidx, coeff: 5, 137, 0.000000 
atom, coeffidx, coeff: 5, 138, 0.000000 
atom, coeffidx, coeff: 5, 139, 0.000000 
atom, coeffidx, coeff: 5, 140, 0.000000 
atom, coeffidx, coeff: 5, 141, 0.000000 
atom, coeffidx, coeff: 5, 142, 0.000000 
atom, coeffidx, coeff: 5, 143, 0.000000 
atom, coeffidx, coeff: 5, 144, 0.000000 
atom, coeffidx, coeff: 5, 145, 0.000000 
atom, coeffidx, coeff: 5, 146, 0.000000 
atom, coeffidx, coeff: 5, 147, 0.000000 
atom, coeffidx, coeff: 5, 148, 0.000000 
atom, coeffidx, coeff: 5, 149, 0.000000 
atom, coeffidx, coeff: 5, 150, 0.000000 
atom, coeffidx, coeff: 5, 151, 0.000000 
atom, coeffidx, coeff: 5, 152, 0.000000 
atom, coeffidx, coeff: 5, 153, 0.000000 
atom, coeffidx, coeff: 5, 154, 0.000000 
atom, coeffidx, coeff: 5, 155, 0.000000 
atom, coeffidx, coeff: 5, 156, 0.000000 
atom, coeffidx, coeff: 5, 157, 0.000000 
atom, coeffidx, coeff: 5, 158, 0.000000 
atom, coeffidx, coeff: 5, 159, 207.254645 
atom, coeffidx, coeff: 5, 160, 11.149606 
atom, coeffidx, coeff: 5, 161, 11.826462 
atom, coeffidx, coeff: 5, 162, 22.251257 
atom, coeffidx, coeff: 5, 163, 5.189702 
atom, coeffidx, coeff: 5, 164, 4.687072 
atom, coeffidx, coeff: 5, 165, 2.388938 
atom, coeffidx, coeff: 5, 166, 2.423506 
atom, coeffidx, coeff: 5, 167, 2.027119 
function index: 0 
function index: 1 
function index: 2 
function index: 3 
function index: 4 
function index: 5 
atom, coeffidx, coeff: 6, 0, 0.000000 
atom, coeffidx, coeff: 6, 1, 0.000000 
atom, coeffidx, coeff: 6, 2, 14.396341 
atom, coeffidx, coeff: 6, 3, 0.000000 
atom, coeffidx, coeff: 6, 4, 0.000000 
atom, coeffidx, coeff: 6, 5, 14.396341 
atom, coeffidx, coeff: 6, 6, 0.000000 
atom, coeffidx, coeff: 6, 7, 0.000000 
atom, coeffidx, coeff: 6, 8, 0.000000 
atom, coeffidx, coeff: 6, 9, 0.000000 
atom, coeffidx, coeff: 6, 10, 0.000000 
atom, coeffidx, coeff: 6, 11, 0.000000 
atom, coeffidx, coeff: 6, 12, 0.000000 
atom, coeffidx, coeff: 6, 13, 0.000000 
atom, coeffidx, coeff: 6, 14, 0.000000 
atom, coeffidx, coeff: 6, 15, 0.000000 
atom, coeffidx, coeff: 6, 16, 0.000000 
atom, coeffidx, coeff: 6, 17, 0.000000 
atom, coeffidx, coeff: 6, 18, 0.000000 
atom, coeffidx, coeff: 6, 19, 0.000000 
atom, coeffidx, coeff: 6, 20, 0.000000 
atom, coeffidx, coeff: 6, 21, 0.000000 
atom, coeffidx, coeff: 6, 22, 0.000000 
atom, coeffidx, coeff: 6, 23, 0.000000 
atom, coeffidx, coeff: 6, 24, 0.000000 
atom, coeffidx, coeff: 6, 25, 0.000000 
atom, coeffidx, coeff: 6, 26, 0.000000 
atom, coeffidx, coeff: 6, 27, 0.000000 
atom, coeffidx, coeff: 6, 28, 0.000000 
atom, coeffidx, coeff: 6, 29, 0.000000 
atom, coeffidx, coeff: 6, 30, 0.000000 
atom, coeffidx, coeff: 6, 31, 0.000000 
atom, coeffidx, coeff: 6, 32, 0.000000 
atom, coeffidx, coeff: 6, 33, 0.000000 
atom, coeffidx, coeff: 6, 34, 0.000000 
atom, coeffidx, coeff: 6, 35, 0.000000 
atom, coeffidx, coeff: 6, 36, 0.000000 
atom, coeffidx, coeff: 6, 37, 0.000000 
atom, coeffidx, coeff: 6, 38, 0.000000 
atom, coeffidx, coeff: 6, 39, 0.000000 
atom, coeffidx, coeff: 6, 40, 0.000000 
atom, coeffidx, coeff: 6, 41, 0.000000 
atom, coeffidx, coeff: 6, 42, 0.000000 
atom, coeffidx, coeff: 6, 43, 0.000000 
atom, coeffidx, coeff: 6, 44, 0.000000 
atom, coeffidx, coeff: 6, 45, 0.000000 
atom, coeffidx, coeff: 6, 46, 0.000000 
atom, coeffidx, coeff: 6, 47, 0.000000 
atom, coeffidx, coeff: 6, 48, 0.000000 
atom, coeffidx, coeff: 6, 49, 0.000000 
atom, coeffidx, coeff: 6, 50, 0.000000 
atom, coeffidx, coeff: 6, 51, 0.000000 
atom, coeffidx, coeff: 6, 52, 0.000000 
atom, coeffidx, coeff: 6, 53, 0.000000 
atom, coeffidx, coeff: 6, 54, 0.000000 
atom, coeffidx, coeff: 6, 55, 0.000000 
atom, coeffidx, coeff: 6, 56, 0.000000 
atom, coeffidx, coeff: 6, 57, 0.000000 
atom, coeffidx, coeff: 6, 58, 0.000000 
atom, coeffidx, coeff: 6, 59, 0.000000 
atom, coeffidx, coeff: 6, 60, 0.000000 
atom, coeffidx, coeff: 6, 61, 0.000000 
atom, coeffidx, coeff: 6, 62, 0.000000 
atom, coeffidx, coeff: 6, 63, 0.000000 
atom, coeffidx, coeff: 6, 64, 0.000000 
atom, coeffidx, coeff: 6, 65, 0.000000 
atom, coeffidx, coeff: 6, 66, 0.000000 
atom, coeffidx, coeff: 6, 67, 0.000000 
atom, coeffidx, coeff: 6, 68, 0.000000 
atom, coeffidx, coeff: 6, 69, 0.000000 
atom, coeffidx, coeff: 6, 70, 0.000000 
atom, coeffidx, coeff: 6, 71, 0.000000 
atom, coeffidx, coeff: 6, 72, 0.000000 
atom, coeffidx, coeff: 6, 73, 0.000000 
atom, coeffidx, coeff: 6, 74, 0.000000 
atom, coeffidx, coeff: 6, 75, 0.000000 
atom, coeffidx, coeff: 6, 76, 0.000000 
atom, coeffidx, coeff: 6, 77, 0.000000 
atom, coeffidx, coeff: 6, 78, 207.254645 
atom, coeffidx, coeff: 6, 79, 11.149606 
atom, coeffidx, coeff: 6, 80, 11.826462 
atom, coeffidx, coeff: 6, 81, 22.251257 
atom, coeffidx, coeff: 6, 82, 5.189702 
atom, coeffidx, coeff: 6, 83, 4.687072 
atom, coeffidx, coeff: 6, 84, 2.388938 
atom, coeffidx, coeff: 6, 85, 2.423506 
atom, coeffidx, coeff: 6, 86, 2.027119 
atom, coeffidx, coeff: 6, 87, 0.000000 
atom, coeffidx, coeff: 6, 88, 0.000000 
atom, coeffidx, coeff: 6, 89, 0.000000 
atom, coeffidx, coeff: 6, 90, 0.000000 
atom, coeffidx, coeff: 6, 91, 0.000000 
atom, coeffidx, coeff: 6, 92, 0.000000 
atom, coeffidx, coeff: 6, 93, 0.000000 
atom, coeffidx, coeff: 6, 94, 0.000000 
atom, coeffidx, coeff: 6, 95, 0.000000 
atom, coeffidx, coeff: 6, 96, 0.000000 
atom, coeffidx, coeff: 6, 97, 0.000000 
atom, coeffidx, coeff: 6, 98, 0.000000 
atom, coeffidx, coeff: 6, 99, 0.000000 
atom, coeffidx, coeff: 6, 100, 0.000000 
atom, coeffidx, coeff: 6, 101, 0.000000 
atom, coeffidx, coeff: 6, 102, 0.000000 
atom, coeffidx, coeff: 6, 103, 0.000000 
atom, coeffidx, coeff: 6, 104, 0.000000 
atom, coeffidx, coeff: 6, 105, 0.000000 
atom, coeffidx, coeff: 6, 106, 0.000000 
atom, coeffidx, coeff: 6, 107, 0.000000 
atom, coeffidx, coeff: 6, 108, 0.000000 
atom, coeffidx, coeff: 6, 109, 0.000000 
atom, coeffidx, coeff: 6, 110, 0.000000 
atom, coeffidx, coeff: 6, 111, 0.000000 
atom, coeffidx, coeff: 6, 112, 0.000000 
atom, coeffidx, coeff: 6, 113, 0.000000 
atom, coeffidx, coeff: 6, 114, 0.000000 
atom, coeffidx, coeff: 6, 115, 0.000000 
atom, coeffidx, coeff: 6, 116, 0.000000 
atom, coeffidx, coeff: 6, 117, 0.000000 
atom, coeffidx, coeff: 6, 118, 0.000000 
atom, coeffidx, coeff: 6, 119, 0.000000 
atom, coeffidx, coeff: 6, 120, 0.000000 
atom, coeffidx, coeff: 6, 121, 0.000000 
atom, coeffidx, coeff: 6, 122, 0.000000 
atom, coeffidx, coeff: 6, 123, 0.000000 
atom, coeffidx, coeff: 6, 124, 0.000000 
atom, coeffidx, coeff: 6, 125, 0.000000 
atom, coeffidx, coeff: 6, 126, 0.000000 
atom, coeffidx, coeff: 6, 127, 0.000000 
atom, coeffidx, coeff: 6, 128, 0.000000 
atom, coeffidx, coeff: 6, 129, 0.000000 
atom, coeffidx, coeff: 6, 130, 0.000000 
atom, coeffidx, coeff: 6, 131, 0.000000 
atom, coeffidx, coeff: 6, 132, 0.000000 
atom, coeffidx, coeff: 6, 133, 0.000000 
atom, coeffidx, coeff: 6, 134, 0.000000 
atom, coeffidx, coeff: 6, 135, 0.000000 
atom, coeffidx, coeff: 6, 136, 0.000000 
atom, coeffidx, coeff: 6, 137, 0.000000 
atom, coeffidx, coeff: 6, 138, 0.000000 
atom, coeffidx, coeff: 6, 139, 0.000000 
atom, coeffidx, coeff: 6, 140, 0.000000 
atom, coeffidx, coeff: 6, 141, 0.000000 
atom, coeffidx, coeff: 6, 142, 0.000000 
atom, coeffidx, coeff: 6, 143, 0.000000 
atom, coeffidx, coeff: 6, 144, 0.000000 
atom, coeffidx, coeff: 6, 145, 0.000000 
atom, coeffidx, coeff: 6, 146, 0.000000 
atom, coeffidx, coeff: 6, 147, 0.000000 
atom, coeffidx, coeff: 6, 148, 0.000000 
atom, coeffidx, coeff: 6, 149, 0.000000 
atom, coeffidx, coeff: 6, 150, 0.000000 
atom, coeffidx, coeff: 6, 151, 0.000000 
atom, coeffidx, coeff: 6, 152, 0.000000 
atom, coeffidx, coeff: 6, 153, 0.000000 
atom, coeffidx, coeff: 6, 154, 0.000000 
atom, coeffidx, coeff: 6, 155, 0.000000 
atom, coeffidx, coeff: 6, 156, 0.000000 
atom, coeffidx, coeff: 6, 157, 0.000000 
atom, coeffidx, coeff: 6, 158, 0.000000 
atom, coeffidx, coeff: 6, 159, 207.254645 
atom, coeffidx, coeff: 6, 160, 11.149606 
atom, coeffidx, coeff: 6, 161, 11.826462 
atom, coeffidx, coeff: 6, 162, 22.251257 
atom, coeffidx, coeff: 6, 163, 5.189702 
atom, coeffidx, coeff: 6, 164, 4.687072 
atom, coeffidx, coeff: 6, 165, 2.388938 
atom, coeffidx, coeff: 6, 166, 2.423506 
atom, coeffidx, coeff: 6, 167, 2.027119 
function index: 0 
function index: 1 
function index: 2 
function index: 3 
function index: 4 
function index: 5 
atom, coeffidx, coeff: 7, 0, 0.000000 
atom, coeffidx, coeff: 7, 1, 0.000000 
atom, coeffidx, coeff: 7, 2, 14.366611 
atom, coeffidx, coeff: 7, 3, 0.000000 
atom, coeffidx, coeff: 7, 4, 0.000000 
atom, coeffidx, coeff: 7, 5, 14.366611 
atom, coeffidx, coeff: 7, 6, 0.000000 
atom, coeffidx, coeff: 7, 7, 0.000000 
atom, coeffidx, coeff: 7, 8, 0.000000 
atom, coeffidx, coeff: 7, 9, 0.000000 
atom, coeffidx, coeff: 7, 10, 0.000000 
atom, coeffidx, coeff: 7, 11, 0.000000 
atom, coeffidx, coeff: 7, 12, 0.000000 
atom, coeffidx, coeff: 7, 13, 0.000000 
atom, coeffidx, coeff: 7, 14, 0.000000 
atom, coeffidx, coeff: 7, 15, 0.000000 
atom, coeffidx, coeff: 7, 16, 0.000000 
atom, coeffidx, coeff: 7, 17, 0.000000 
atom, coeffidx, coeff: 7, 18, 0.000000 
atom, coeffidx, coeff: 7, 19, 0.000000 
atom, coeffidx, coeff: 7, 20, 0.000000 
atom, coeffidx, coeff: 7, 21, 0.000000 
atom, coeffidx, coeff: 7, 22, 0.000000 
atom, coeffidx, coeff: 7, 23, 0.000000 
atom, coeffidx, coeff: 7, 24, 0.000000 
atom, coeffidx, coeff: 7, 25, 0.000000 
atom, coeffidx, coeff: 7, 26, 0.000000 
atom, coeffidx, coeff: 7, 27, 0.000000 
atom, coeffidx, coeff: 7, 28, 0.000000 
atom, coeffidx, coeff: 7, 29, 0.000000 
atom, coeffidx, coeff: 7, 30, 0.000000 
atom, coeffidx, coeff: 7, 31, 0.000000 
atom, coeffidx, coeff: 7, 32, 0.000000 
atom, coeffidx, coeff: 7, 33, 0.000000 
atom, coeffidx, coeff: 7, 34, 0.000000 
atom, coeffidx, coeff: 7, 35, 0.000000 
atom, coeffidx, coeff: 7, 36, 0.000000 
atom, coeffidx, coeff: 7, 37, 0.000000 
atom, coeffidx, coeff: 7, 38, 0.000000 
atom, coeffidx, coeff: 7, 39, 0.000000 
atom, coeffidx, coeff: 7, 40, 0.000000 
atom, coeffidx, coeff: 7, 41, 0.000000 
atom, coeffidx, coeff: 7, 42, 0.000000 
atom, coeffidx, coeff: 7, 43, 0.000000 
atom, coeffidx, coeff: 7, 44, 0.000000 
atom, coeffidx, coeff: 7, 45, 0.000000 
atom, coeffidx, coeff: 7, 46, 0.000000 
atom, coeffidx, coeff: 7, 47, 0.000000 
atom, coeffidx, coeff: 7, 48, 0.000000 
atom, coeffidx, coeff: 7, 49, 0.000000 
atom, coeffidx, coeff: 7, 50, 0.000000 
atom, coeffidx, coeff: 7, 51, 0.000000 
atom, coeffidx, coeff: 7, 52, 0.000000 
atom, coeffidx, coeff: 7, 53, 0.000000 
atom, coeffidx, coeff: 7, 54, 0.000000 
atom, coeffidx, coeff: 7, 55, 0.000000 
atom, coeffidx, coeff: 7, 56, 0.000000 
atom, coeffidx, coeff: 7, 57, 0.000000 
atom, coeffidx, coeff: 7, 58, 0.000000 
atom, coeffidx, coeff: 7, 59, 0.000000 
atom, coeffidx, coeff: 7, 60, 0.000000 
atom, coeffidx, coeff: 7, 61, 0.000000 
atom, coeffidx, coeff: 7, 62, 0.000000 
atom, coeffidx, coeff: 7, 63, 0.000000 
atom, coeffidx, coeff: 7, 64, 0.000000 
atom, coeffidx, coeff: 7, 65, 0.000000 
atom, coeffidx, coeff: 7, 66, 0.000000 
atom, coeffidx, coeff: 7, 67, 0.000000 
atom, coeffidx, coeff: 7, 68, 0.000000 
atom, coeffidx, coeff: 7, 69, 0.000000 
atom, coeffidx, coeff: 7, 70, 0.000000 
atom, coeffidx, coeff: 7, 71, 0.000000 
atom, coeffidx, coeff: 7, 72, 0.000000 
atom, coeffidx, coeff: 7, 73, 0.000000 
atom, coeffidx, coeff: 7, 74, 0.000000 
atom, coeffidx, coeff: 7, 75, 0.000000 
atom, coeffidx, coeff: 7, 76, 0.000000 
atom, coeffidx, coeff: 7, 77, 0.000000 
atom, coeffidx, coeff: 7, 78, 206.399519 
atom, coeffidx, coeff: 7, 79, 2.723117 
atom, coeffidx, coeff: 7, 80, 109.715456 
atom, coeffidx, coeff: 7, 81, 21.627317 
atom, coeffidx, coeff: 7, 82, 1.372730 
atom, coeffidx, coeff: 7, 83, 22.515177 
atom, coeffidx, coeff: 7, 84, 2.266191 
atom, coeffidx, coeff: 7, 85, 0.710998 
atom, coeffidx, coeff: 7, 86, 4.754766 
atom, coeffidx, coeff: 7, 87, 0.000000 
atom, coeffidx, coeff: 7, 88, 0.000000 
atom, coeffidx, coeff: 7, 89, 0.000000 
atom, coeffidx, coeff: 7, 90, 0.000000 
atom, coeffidx, coeff: 7, 91, 0.000000 
atom, coeffidx, coeff: 7, 92, 0.000000 
atom, coeffidx, coeff: 7, 93, 0.000000 
atom, coeffidx, coeff: 7, 94, 0.000000 
atom, coeffidx, coeff: 7, 95, 0.000000 
atom, coeffidx, coeff: 7, 96, 0.000000 
atom, coeffidx, coeff: 7, 97, 0.000000 
atom, coeffidx, coeff: 7, 98, 0.000000 
atom, coeffidx, coeff: 7, 99, 0.000000 
atom, coeffidx, coeff: 7, 100, 0.000000 
atom, coeffidx, coeff: 7, 101, 0.000000 
atom, coeffidx, coeff: 7, 102, 0.000000 
atom, coeffidx, coeff: 7, 103, 0.000000 
atom, coeffidx, coeff: 7, 104, 0.000000 
atom, coeffidx, coeff: 7, 105, 0.000000 
atom, coeffidx, coeff: 7, 106, 0.000000 
atom, coeffidx, coeff: 7, 107, 0.000000 
atom, coeffidx, coeff: 7, 108, 0.000000 
atom, coeffidx, coeff: 7, 109, 0.000000 
atom, coeffidx, coeff: 7, 110, 0.000000 
atom, coeffidx, coeff: 7, 111, 0.000000 
atom, coeffidx, coeff: 7, 112, 0.000000 
atom, coeffidx, coeff: 7, 113, 0.000000 
atom, coeffidx, coeff: 7, 114, 0.000000 
atom, coeffidx, coeff: 7, 115, 0.000000 
atom, coeffidx, coeff: 7, 116, 0.000000 
atom, coeffidx, coeff: 7, 117, 0.000000 
atom, coeffidx, coeff: 7, 118, 0.000000 
atom, coeffidx, coeff: 7, 119, 0.000000 
atom, coeffidx, coeff: 7, 120, 0.000000 
atom, coeffidx, coeff: 7, 121, 0.000000 
atom, coeffidx, coeff: 7, 122, 0.000000 
atom, coeffidx, coeff: 7, 123, 0.000000 
atom, coeffidx, coeff: 7, 124, 0.000000 
atom, coeffidx, coeff: 7, 125, 0.000000 
atom, coeffidx, coeff: 7, 126, 0.000000 
atom, coeffidx, coeff: 7, 127, 0.000000 
atom, coeffidx, coeff: 7, 128, 0.000000 
atom, coeffidx, coeff: 7, 129, 0.000000 
atom, coeffidx, coeff: 7, 130, 0.000000 
atom, coeffidx, coeff: 7, 131, 0.000000 
atom, coeffidx, coeff: 7, 132, 0.000000 
atom, coeffidx, coeff: 7, 133, 0.000000 
atom, coeffidx, coeff: 7, 134, 0.000000 
atom, coeffidx, coeff: 7, 135, 0.000000 
atom, coeffidx, coeff: 7, 136, 0.000000 
atom, coeffidx, coeff: 7, 137, 0.000000 
atom, coeffidx, coeff: 7, 138, 0.000000 
atom, coeffidx, coeff: 7, 139, 0.000000 
atom, coeffidx, coeff: 7, 140, 0.000000 
atom, coeffidx, coeff: 7, 141, 0.000000 
atom, coeffidx, coeff: 7, 142, 0.000000 
atom, coeffidx, coeff: 7, 143, 0.000000 
atom, coeffidx, coeff: 7, 144, 0.000000 
atom, coeffidx, coeff: 7, 145, 0.000000 
atom, coeffidx, coeff: 7, 146, 0.000000 
atom, coeffidx, coeff: 7, 147, 0.000000 
atom, coeffidx, coeff: 7, 148, 0.000000 
atom, coeffidx, coeff: 7, 149, 0.000000 
atom, coeffidx, coeff: 7, 150, 0.000000 
atom, coeffidx, coeff: 7, 151, 0.000000 
atom, coeffidx, coeff: 7, 152, 0.000000 
atom, coeffidx, coeff: 7, 153, 0.000000 
atom, coeffidx, coeff: 7, 154, 0.000000 
atom, coeffidx, coeff: 7, 155, 0.000000 
atom, coeffidx, coeff: 7, 156, 0.000000 
atom, coeffidx, coeff: 7, 157, 0.000000 
atom, coeffidx, coeff: 7, 158, 0.000000 
atom, coeffidx, coeff: 7, 159, 206.399519 
atom, coeffidx, coeff: 7, 160, 2.723117 
atom, coeffidx, coeff: 7, 161, 109.715456 
atom, coeffidx, coeff: 7, 162, 21.627317 
atom, coeffidx, coeff: 7, 163, 1.372730 
atom, coeffidx, coeff: 7, 164, 22.515177 
atom, coeffidx, coeff: 7, 165, 2.266191 
atom, coeffidx, coeff: 7, 166, 0.710998 
atom, coeffidx, coeff: 7, 167, 4.754766 
function index: 0 
function index: 1 
function index: 2 
function index: 3 
function index: 4 
function index: 5 
atom, coeffidx, coeff: 8, 0, 0.000000 
atom, coeffidx, coeff: 8, 1, 0.000000 
atom, coeffidx, coeff: 8, 2, 14.139259 
atom, coeffidx, coeff: 8, 3, 0.000000 
atom, coeffidx, coeff: 8, 4, 0.000000 
atom, coeffidx, coeff: 8, 5, 14.139259 
atom, coeffidx, coeff: 8, 6, 0.000000 
atom, coeffidx, coeff: 8, 7, 0.000000 
atom, coeffidx, coeff: 8, 8, 0.000000 
atom, coeffidx, coeff: 8, 9, 0.000000 
atom, coeffidx, coeff: 8, 10, 0.000000 
atom, coeffidx, coeff: 8, 11, 0.000000 
atom, coeffidx, coeff: 8, 12, 0.000000 
atom, coeffidx, coeff: 8, 13, 0.000000 
atom, coeffidx, coeff: 8, 14, 0.000000 
atom, coeffidx, coeff: 8, 15, 0.000000 
atom, coeffidx, coeff: 8, 16, 0.000000 
atom, coeffidx, coeff: 8, 17, 0.000000 
atom, coeffidx, coeff: 8, 18, 0.000000 
atom, coeffidx, coeff: 8, 19, 0.000000 
atom, coeffidx, coeff: 8, 20, 0.000000 
atom, coeffidx, coeff: 8, 21, 0.000000 
atom, coeffidx, coeff: 8, 22, 0.000000 
atom, coeffidx, coeff: 8, 23, 0.000000 
atom, coeffidx, coeff: 8, 24, 0.000000 
atom, coeffidx, coeff: 8, 25, 0.000000 
atom, coeffidx, coeff: 8, 26, 0.000000 
atom, coeffidx, coeff: 8, 27, 0.000000 
atom, coeffidx, coeff: 8, 28, 0.000000 
atom, coeffidx, coeff: 8, 29, 0.000000 
atom, coeffidx, coeff: 8, 30, 0.000000 
atom, coeffidx, coeff: 8, 31, 0.000000 
atom, coeffidx, coeff: 8, 32, 0.000000 
atom, coeffidx, coeff: 8, 33, 0.000000 
atom, coeffidx, coeff: 8, 34, 0.000000 
atom, coeffidx, coeff: 8, 35, 0.000000 
atom, coeffidx, coeff: 8, 36, 0.000000 
atom, coeffidx, coeff: 8, 37, 0.000000 
atom, coeffidx, coeff: 8, 38, 0.000000 
atom, coeffidx, coeff: 8, 39, 0.000000 
atom, coeffidx, coeff: 8, 40, 0.000000 
atom, coeffidx, coeff: 8, 41, 0.000000 
atom, coeffidx, coeff: 8, 42, 0.000000 
atom, coeffidx, coeff: 8, 43, 0.000000 
atom, coeffidx, coeff: 8, 44, 0.000000 
atom, coeffidx, coeff: 8, 45, 0.000000 
atom, coeffidx, coeff: 8, 46, 0.000000 
atom, coeffidx, coeff: 8, 47, 0.000000 
atom, coeffidx, coeff: 8, 48, 0.000000 
atom, coeffidx, coeff: 8, 49, 0.000000 
atom, coeffidx, coeff: 8, 50, 0.000000 
atom, coeffidx, coeff: 8, 51, 0.000000 
atom, coeffidx, coeff: 8, 52, 0.000000 
atom, coeffidx, coeff: 8, 53, 0.000000 
atom, coeffidx, coeff: 8, 54, 0.000000 
atom, coeffidx, coeff: 8, 55, 0.000000 
atom, coeffidx, coeff: 8, 56, 0.000000 
atom, coeffidx, coeff: 8, 57, 0.000000 
atom, coeffidx, coeff: 8, 58, 0.000000 
atom, coeffidx, coeff: 8, 59, 0.000000 
atom, coeffidx, coeff: 8, 60, 0.000000 
atom, coeffidx, coeff: 8, 61, 0.000000 
atom, coeffidx, coeff: 8, 62, 0.000000 
atom, coeffidx, coeff: 8, 63, 0.000000 
atom, coeffidx, coeff: 8, 64, 0.000000 
atom, coeffidx, coeff: 8, 65, 0.000000 
atom, coeffidx, coeff: 8, 66, 0.000000 
atom, coeffidx, coeff: 8, 67, 0.000000 
atom, coeffidx, coeff: 8, 68, 0.000000 
atom, coeffidx, coeff: 8, 69, 0.000000 
atom, coeffidx, coeff: 8, 70, 0.000000 
atom, coeffidx, coeff: 8, 71, 0.000000 
atom, coeffidx, coeff: 8, 72, 0.000000 
atom, coeffidx, coeff: 8, 73, 0.000000 
atom, coeffidx, coeff: 8, 74, 0.000000 
atom, coeffidx, coeff: 8, 75, 0.000000 
atom, coeffidx, coeff: 8, 76, 0.000000 
atom, coeffidx, coeff: 8, 77, 0.000000 
atom, coeffidx, coeff: 8, 78, 199.918645 
atom, coeffidx, coeff: 8, 79, 0.223757 
atom, coeffidx, coeff: 8, 80, 11.388182 
atom, coeffidx, coeff: 8, 81, 29.474021 
atom, coeffidx, coeff: 8, 82, 0.022791 
atom, coeffidx, coeff: 8, 83, 1.286266 
atom, coeffidx, coeff: 8, 84, 4.345357 
atom, coeffidx, coeff: 8, 85, 0.003553 
atom, coeffidx, coeff: 8, 86, 0.158949 
atom, coeffidx, coeff: 8, 87, 0.000000 
atom, coeffidx, coeff: 8, 88, 0.000000 
atom, coeffidx, coeff: 8, 89, 0.000000 
atom, coeffidx, coeff: 8, 90, 0.000000 
atom, coeffidx, coeff: 8, 91, 0.000000 
atom, coeffidx, coeff: 8, 92, 0.000000 
atom, coeffidx, coeff: 8, 93, 0.000000 
atom, coeffidx, coeff: 8, 94, 0.000000 
atom, coeffidx, coeff: 8, 95, 0.000000 
atom, coeffidx, coeff: 8, 96, 0.000000 
atom, coeffidx, coeff: 8, 97, 0.000000 
atom, coeffidx, coeff: 8, 98, 0.000000 
atom, coeffidx, coeff: 8, 99, 0.000000 
atom, coeffidx, coeff: 8, 100, 0.000000 
atom, coeffidx, coeff: 8, 101, 0.000000 
atom, coeffidx, coeff: 8, 102, 0.000000 
atom, coeffidx, coeff: 8, 103, 0.000000 
atom, coeffidx, coeff: 8, 104, 0.000000 
atom, coeffidx, coeff: 8, 105, 0.000000 
atom, coeffidx, coeff: 8, 106, 0.000000 
atom, coeffidx, coeff: 8, 107, 0.000000 
atom, coeffidx, coeff: 8, 108, 0.000000 
atom, coeffidx, coeff: 8, 109, 0.000000 
atom, coeffidx, coeff: 8, 110, 0.000000 
atom, coeffidx, coeff: 8, 111, 0.000000 
atom, coeffidx, coeff: 8, 112, 0.000000 
atom, coeffidx, coeff: 8, 113, 0.000000 
atom, coeffidx, coeff: 8, 114, 0.000000 
atom, coeffidx, coeff: 8, 115, 0.000000 
atom, coeffidx, coeff: 8, 116, 0.000000 
atom, coeffidx, coeff: 8, 117, 0.000000 
atom, coeffidx, coeff: 8, 118, 0.000000 
atom, coeffidx, coeff: 8, 119, 0.000000 
atom, coeffidx, coeff: 8, 120, 0.000000 
atom, coeffidx, coeff: 8, 121, 0.000000 
atom, coeffidx, coeff: 8, 122, 0.000000 
atom, coeffidx, coeff: 8, 123, 0.000000 
atom, coeffidx, coeff: 8, 124, 0.000000 
atom, coeffidx, coeff: 8, 125, 0.000000 
atom, coeffidx, coeff: 8, 126, 0.000000 
atom, coeffidx, coeff: 8, 127, 0.000000 
atom, coeffidx, coeff: 8, 128, 0.000000 
atom, coeffidx, coeff: 8, 129, 0.000000 
atom, coeffidx, coeff: 8, 130, 0.000000 
atom, coeffidx, coeff: 8, 131, 0.000000 
atom, coeffidx, coeff: 8, 132, 0.000000 
atom, coeffidx, coeff: 8, 133, 0.000000 
atom, coeffidx, coeff: 8, 134, 0.000000 
atom, coeffidx, coeff: 8, 135, 0.000000 
atom, coeffidx, coeff: 8, 136, 0.000000 
atom, coeffidx, coeff: 8, 137, 0.000000 
atom, coeffidx, coeff: 8, 138, 0.000000 
atom, coeffidx, coeff: 8, 139, 0.000000 
atom, coeffidx, coeff: 8, 140, 0.000000 
atom, coeffidx, coeff: 8, 141, 0.000000 
atom, coeffidx, coeff: 8, 142, 0.000000 
atom, coeffidx, coeff: 8, 143, 0.000000 
atom, coeffidx, coeff: 8, 144, 0.000000 
atom, coeffidx, coeff: 8, 145, 0.000000 
atom, coeffidx, coeff: 8, 146, 0.000000 
atom, coeffidx, coeff: 8, 147, 0.000000 
atom, coeffidx, coeff: 8, 148, 0.000000 
atom, coeffidx, coeff: 8, 149, 0.000000 
atom, coeffidx, coeff: 8, 150, 0.000000 
atom, coeffidx, coeff: 8, 151, 0.000000 
atom, coeffidx, coeff: 8, 152, 0.000000 
atom, coeffidx, coeff: 8, 153, 0.000000 
atom, coeffidx, coeff: 8, 154, 0.000000 
atom, coeffidx, coeff: 8, 155, 0.000000 
atom, coeffidx, coeff: 8, 156, 0.000000 
atom, coeffidx, coeff: 8, 157, 0.000000 
atom, coeffidx, coeff: 8, 158, 0.000000 
atom, coeffidx, coeff: 8, 159, 199.918645 
atom, coeffidx, coeff: 8, 160, 0.223757 
atom, coeffidx, coeff: 8, 161, 11.388182 
atom, coeffidx, coeff: 8, 162, 29.474021 
atom, coeffidx, coeff: 8, 163, 0.022791 
atom, coeffidx, coeff: 8, 164, 1.286266 
atom, coeffidx, coeff: 8, 165, 4.345357 
atom, coeffidx, coeff: 8, 166, 0.003553 
atom, coeffidx, coeff: 8, 167, 0.158949 
function index: 0 
function index: 1 
function index: 2 
function index: 3 
function index: 4 
function index: 5 
atom, coeffidx, coeff: 9, 0, 0.000000 
atom, coeffidx, coeff: 9, 1, 0.000000 
atom, coeffidx, coeff: 9, 2, 14.297889 
atom, coeffidx, coeff: 9, 3, 0.000000 
atom, coeffidx, coeff: 9, 4, 0.000000 
atom, coeffidx, coeff: 9, 5, 14.297889 
atom, coeffidx, coeff: 9, 6, 0.000000 
atom, coeffidx, coeff: 9, 7, 0.000000 
atom, coeffidx, coeff: 9, 8, 0.000000 
atom, coeffidx, coeff: 9, 9, 0.000000 
atom, coeffidx, coeff: 9, 10, 0.000000 
atom, coeffidx, coeff: 9, 11, 0.000000 
atom, coeffidx, coeff: 9, 12, 0.000000 
atom, coeffidx, coeff: 9, 13, 0.000000 
atom, coeffidx, coeff: 9, 14, 0.000000 
atom, coeffidx, coeff: 9, 15, 0.000000 
atom, coeffidx, coeff: 9, 16, 0.000000 
atom, coeffidx, coeff: 9, 17, 0.000000 
atom, coeffidx, coeff: 9, 18, 0.000000 
atom, coeffidx, coeff: 9, 19, 0.000000 
atom, coeffidx, coeff: 9, 20, 0.000000 
atom, coeffidx, coeff: 9, 21, 0.000000 
atom, coeffidx, coeff: 9, 22, 0.000000 
atom, coeffidx, coeff: 9, 23, 0.000000 
atom, coeffidx, coeff: 9, 24, 0.000000 
atom, coeffidx, coeff: 9, 25, 0.000000 
atom, coeffidx, coeff: 9, 26, 0.000000 
atom, coeffidx, coeff: 9, 27, 0.000000 
atom, coeffidx, coeff: 9, 28, 0.000000 
atom, coeffidx, coeff: 9, 29, 0.000000 
atom, coeffidx, coeff: 9, 30, 0.000000 
atom, coeffidx, coeff: 9, 31, 0.000000 
atom, coeffidx, coeff: 9, 32, 0.000000 
atom, coeffidx, coeff: 9, 33, 0.000000 
atom, coeffidx, coeff: 9, 34, 0.000000 
atom, coeffidx, coeff: 9, 35, 0.000000 
atom, coeffidx, coeff: 9, 36, 0.000000 
atom, coeffidx, coeff: 9, 37, 0.000000 
atom, coeffidx, coeff: 9, 38, 0.000000 
atom, coeffidx, coeff: 9, 39, 0.000000 
atom, coeffidx, coeff: 9, 40, 0.000000 
atom, coeffidx, coeff: 9, 41, 0.000000 
atom, coeffidx, coeff: 9, 42, 0.000000 
atom, coeffidx, coeff: 9, 43, 0.000000 
atom, coeffidx, coeff: 9, 44, 0.000000 
atom, coeffidx, coeff: 9, 45, 0.000000 
atom, coeffidx, coeff: 9, 46, 0.000000 
atom, coeffidx, coeff: 9, 47, 0.000000 
atom, coeffidx, coeff: 9, 48, 0.000000 
atom, coeffidx, coeff: 9, 49, 0.000000 
atom, coeffidx, coeff: 9, 50, 0.000000 
atom, coeffidx, coeff: 9, 51, 0.000000 
atom, coeffidx, coeff: 9, 52, 0.000000 
atom, coeffidx, coeff: 9, 53, 0.000000 
atom, coeffidx, coeff: 9, 54, 0.000000 
atom, coeffidx, coeff: 9, 55, 0.000000 
atom, coeffidx, coeff: 9, 56, 0.000000 
atom, coeffidx, coeff: 9, 57, 0.000000 
atom, coeffidx, coeff: 9, 58, 0.000000 
atom, coeffidx, coeff: 9, 59, 0.000000 
atom, coeffidx, coeff: 9, 60, 0.000000 
atom, coeffidx, coeff: 9, 61, 0.000000 
atom, coeffidx, coeff: 9, 62, 0.000000 
atom, coeffidx, coeff: 9, 63, 0.000000 
atom, coeffidx, coeff: 9, 64, 0.000000 
atom, coeffidx, coeff: 9, 65, 0.000000 
atom, coeffidx, coeff: 9, 66, 0.000000 
atom, coeffidx, coeff: 9, 67, 0.000000 
atom, coeffidx, coeff: 9, 68, 0.000000 
atom, coeffidx, coeff: 9, 69, 0.000000 
atom, coeffidx, coeff: 9, 70, 0.000000 
atom, coeffidx, coeff: 9, 71, 0.000000 
atom, coeffidx, coeff: 9, 72, 0.000000 
atom, coeffidx, coeff: 9, 73, 0.000000 
atom, coeffidx, coeff: 9, 74, 0.000000 
atom, coeffidx, coeff: 9, 75, 0.000000 
atom, coeffidx, coeff: 9, 76, 0.000000 
atom, coeffidx, coeff: 9, 77, 0.000000 
atom, coeffidx, coeff: 9, 78, 204.429621 
atom, coeffidx, coeff: 9, 79, 5.561476 
atom, coeffidx, coeff: 9, 80, 76.358948 
atom, coeffidx, coeff: 9, 81, 23.425394 
atom, coeffidx, coeff: 9, 82, 2.822311 
atom, coeffidx, coeff: 9, 83, 17.437752 
atom, coeffidx, coeff: 9, 84, 2.684294 
atom, coeffidx, coeff: 9, 85, 1.436039 
atom, coeffidx, coeff: 9, 86, 4.301501 
atom, coeffidx, coeff: 9, 87, 0.000000 
atom, coeffidx, coeff: 9, 88, 0.000000 
atom, coeffidx, coeff: 9, 89, 0.000000 
atom, coeffidx, coeff: 9, 90, 0.000000 
atom, coeffidx, coeff: 9, 91, 0.000000 
atom, coeffidx, coeff: 9, 92, 0.000000 
atom, coeffidx, coeff: 9, 93, 0.000000 
atom, coeffidx, coeff: 9, 94, 0.000000 
atom, coeffidx, coeff: 9, 95, 0.000000 
atom, coeffidx, coeff: 9, 96, 0.000000 
atom, coeffidx, coeff: 9, 97, 0.000000 
atom, coeffidx, coeff: 9, 98, 0.000000 
atom, coeffidx, coeff: 9, 99, 0.000000 
atom, coeffidx, coeff: 9, 100, 0.000000 
atom, coeffidx, coeff: 9, 101, 0.000000 
atom, coeffidx, coeff: 9, 102, 0.000000 
atom, coeffidx, coeff: 9, 103, 0.000000 
atom, coeffidx, coeff: 9, 104, 0.000000 
atom, coeffidx, coeff: 9, 105, 0.000000 
atom, coeffidx, coeff: 9, 106, 0.000000 
atom, coeffidx, coeff: 9, 107, 0.000000 
atom, coeffidx, coeff: 9, 108, 0.000000 
atom, coeffidx, coeff: 9, 109, 0.000000 
atom, coeffidx, coeff: 9, 110, 0.000000 
atom, coeffidx, coeff: 9, 111, 0.000000 
atom, coeffidx, coeff: 9, 112, 0.000000 
atom, coeffidx, coeff: 9, 113, 0.000000 
atom, coeffidx, coeff: 9, 114, 0.000000 
atom, coeffidx, coeff: 9, 115, 0.000000 
atom, coeffidx, coeff: 9, 116, 0.000000 
atom, coeffidx, coeff: 9, 117, 0.000000 
atom, coeffidx, coeff: 9, 118, 0.000000 
atom, coeffidx, coeff: 9, 119, 0.000000 
atom, coeffidx, coeff: 9, 120, 0.000000 
atom, coeffidx, coeff: 9, 121, 0.000000 
atom, coeffidx, coeff: 9, 122, 0.000000 
atom, coeffidx, coeff: 9, 123, 0.000000 
atom, coeffidx, coeff: 9, 124, 0.000000 
atom, coeffidx, coeff: 9, 125, 0.000000 
atom, coeffidx, coeff: 9, 126, 0.000000 
atom, coeffidx, coeff: 9, 127, 0.000000 
atom, coeffidx, coeff: 9, 128, 0.000000 
atom, coeffidx, coeff: 9, 129, 0.000000 
atom, coeffidx, coeff: 9, 130, 0.000000 
atom, coeffidx, coeff: 9, 131, 0.000000 
atom, coeffidx, coeff: 9, 132, 0.000000 
atom, coeffidx, coeff: 9, 133, 0.000000 
atom, coeffidx, coeff: 9, 134, 0.000000 
atom, coeffidx, coeff: 9, 135, 0.000000 
atom, coeffidx, coeff: 9, 136, 0.000000 
atom, coeffidx, coeff: 9, 137, 0.000000 
atom, coeffidx, coeff: 9, 138, 0.000000 
atom, coeffidx, coeff: 9, 139, 0.000000 
atom, coeffidx, coeff: 9, 140, 0.000000 
atom, coeffidx, coeff: 9, 141, 0.000000 
atom, coeffidx, coeff: 9, 142, 0.000000 
atom, coeffidx, coeff: 9, 143, 0.000000 
atom, coeffidx, coeff: 9, 144, 0.000000 
atom, coeffidx, coeff: 9, 145, 0.000000 
atom, coeffidx, coeff: 9, 146, 0.000000 
atom, coeffidx, coeff: 9, 147, 0.000000 
atom, coeffidx, coeff: 9, 148, 0.000000 
atom, coeffidx, coeff: 9, 149, 0.000000 
atom, coeffidx, coeff: 9, 150, 0.000000 
atom, coeffidx, coeff: 9, 151, 0.000000 
atom, coeffidx, coeff: 9, 152, 0.000000 
atom, coeffidx, coeff: 9, 153, 0.000000 
atom, coeffidx, coeff: 9, 154, 0.000000 
atom, coeffidx, coeff: 9, 155, 0.000000 
atom, coeffidx, coeff: 9, 156, 0.000000 
atom, coeffidx, coeff: 9, 157, 0.000000 
atom, coeffidx, coeff: 9, 158, 0.000000 
atom, coeffidx, coeff: 9, 159, 204.429621 
atom, coeffidx, coeff: 9, 160, 5.561476 
atom, coeffidx, coeff: 9, 161, 76.358948 
atom, coeffidx, coeff: 9, 162, 23.425394 
atom, coeffidx, coeff: 9, 163, 2.822311 
atom, coeffidx, coeff: 9, 164, 17.437752 
atom, coeffidx, coeff: 9, 165, 2.684294 
atom, coeffidx, coeff: 9, 166, 1.436039 
atom, coeffidx, coeff: 9, 167, 4.301501 
function index: 0 
function index: 1 
function index: 2 
function index: 3 
function index: 4 
function index: 5 
atom, coeffidx, coeff: 10, 0, 0.000000 
atom, coeffidx, coeff: 10, 1, 0.000000 
atom, coeffidx, coeff: 10, 2, 14.396341 
atom, coeffidx, coeff: 10, 3, 0.000000 
atom, coeffidx, coeff: 10, 4, 0.000000 
atom, coeffidx, coeff: 10, 5, 14.396341 
atom, coeffidx, coeff: 10, 6, 0.000000 
atom, coeffidx, coeff: 10, 7, 0.000000 
atom, coeffidx, coeff: 10, 8, 0.000000 
atom, coeffidx, coeff: 10, 9, 0.000000 
atom, coeffidx, coeff: 10, 10, 0.000000 
atom, coeffidx, coeff: 10, 11, 0.000000 
atom, coeffidx, coeff: 10, 12, 0.000000 
atom, coeffidx, coeff: 10, 13, 0.000000 
atom, coeffidx, coeff: 10, 14, 0.000000 
atom, coeffidx, coeff: 10, 15, 0.000000 
atom, coeffidx, coeff: 10, 16, 0.000000 
atom, coeffidx, coeff: 10, 17, 0.000000 
atom, coeffidx, coeff: 10, 18, 0.000000 
atom, coeffidx, coeff: 10, 19, 0.000000 
atom, coeffidx, coeff: 10, 20, 0.000000 
atom, coeffidx, coeff: 10, 21, 0.000000 
atom, coeffidx, coeff: 10, 22, 0.000000 
atom, coeffidx, coeff: 10, 23, 0.000000 
atom, coeffidx, coeff: 10, 24, 0.000000 
atom, coeffidx, coeff: 10, 25, 0.000000 
atom, coeffidx, coeff: 10, 26, 0.000000 
atom, coeffidx, coeff: 10, 27, 0.000000 
atom, coeffidx, coeff: 10, 28, 0.000000 
atom, coeffidx, coeff: 10, 29, 0.000000 
atom, coeffidx, coeff: 10, 30, 0.000000 
atom, coeffidx, coeff: 10, 31, 0.000000 
atom, coeffidx, coeff: 10, 32, 0.000000 
atom, coeffidx, coeff: 10, 33, 0.000000 
atom, coeffidx, coeff: 10, 34, 0.000000 
atom, coeffidx, coeff: 10, 35, 0.000000 
atom, coeffidx, coeff: 10, 36, 0.000000 
atom, coeffidx, coeff: 10, 37, 0.000000 
atom, coeffidx, coeff: 10, 38, 0.000000 
atom, coeffidx, coeff: 10, 39, 0.000000 
atom, coeffidx, coeff: 10, 40, 0.000000 
atom, coeffidx, coeff: 10, 41, 0.000000 
atom, coeffidx, coeff: 10, 42, 0.000000 
atom, coeffidx, coeff: 10, 43, 0.000000 
atom, coeffidx, coeff: 10, 44, 0.000000 
[...]
atom, coeffidx, coeff: 54, 43, 0.000000 
atom, coeffidx, coeff: 54, 44, 0.000000 
atom, coeffidx, coeff: 54, 45, 0.000000 
atom, coeffidx, coeff: 54, 46, 0.000000 
atom, coeffidx, coeff: 54, 47, 0.000000 
atom, coeffidx, coeff: 54, 48, 0.000000 
atom, coeffidx, coeff: 54, 49, 0.000000 
atom, coeffidx, coeff: 54, 50, 0.000000 
atom, coeffidx, coeff: 54, 51, 0.000000 
atom, coeffidx, coeff: 54, 52, 0.000000 
atom, coeffidx, coeff: 54, 53, 0.000000 
atom, coeffidx, coeff: 54, 54, 0.000000 
atom, coeffidx, coeff: 54, 55, 0.000000 
atom, coeffidx, coeff: 54, 56, 0.000000 
atom, coeffidx, coeff: 54, 57, 0.000000 
atom, coeffidx, coeff: 54, 58, 0.000000 
atom, coeffidx, coeff: 54, 59, 0.000000 
atom, coeffidx, coeff: 54, 60, 0.000000 
atom, coeffidx, coeff: 54, 61, 0.000000 
atom, coeffidx, coeff: 54, 62, 0.000000 
atom, coeffidx, coeff: 54, 63, 0.000000 
atom, coeffidx, coeff: 54, 64, 0.000000 
atom, coeffidx, coeff: 54, 65, 0.000000 
atom, coeffidx, coeff: 54, 66, 0.000000 
atom, coeffidx, coeff: 54, 67, 0.000000 
atom, coeffidx, coeff: 54, 68, 0.000000 
atom, coeffidx, coeff: 54, 69, 0.000000 
atom, coeffidx, coeff: 54, 70, 0.000000 
atom, coeffidx, coeff: 54, 71, 0.000000 
atom, coeffidx, coeff: 54, 72, 0.000000 
atom, coeffidx, coeff: 54, 73, 0.000000 
atom, coeffidx, coeff: 54, 74, 0.000000 
atom, coeffidx, coeff: 54, 75, 0.000000 
atom, coeffidx, coeff: 54, 76, 0.000000 
atom, coeffidx, coeff: 54, 77, 0.000000 
atom, coeffidx, coeff: 54, 78, 207.367668 
atom, coeffidx, coeff: 54, 79, 3.275824 
atom, coeffidx, coeff: 54, 80, 106.733575 
atom, coeffidx, coeff: 54, 81, 19.494946 
atom, coeffidx, coeff: 54, 82, 1.553116 
atom, coeffidx, coeff: 54, 83, 19.888366 
atom, coeffidx, coeff: 54, 84, 1.832749 
atom, coeffidx, coeff: 54, 85, 0.758548 
atom, coeffidx, coeff: 54, 86, 3.788056 
atom, coeffidx, coeff: 54, 87, 0.000000 
atom, coeffidx, coeff: 54, 88, 0.000000 
atom, coeffidx, coeff: 54, 89, 0.000000 
atom, coeffidx, coeff: 54, 90, 0.000000 
atom, coeffidx, coeff: 54, 91, 0.000000 
atom, coeffidx, coeff: 54, 92, 0.000000 
atom, coeffidx, coeff: 54, 93, 0.000000 
atom, coeffidx, coeff: 54, 94, 0.000000 
atom, coeffidx, coeff: 54, 95, 0.000000 
atom, coeffidx, coeff: 54, 96, 0.000000 
atom, coeffidx, coeff: 54, 97, 0.000000 
atom, coeffidx, coeff: 54, 98, 0.000000 
atom, coeffidx, coeff: 54, 99, 0.000000 
atom, coeffidx, coeff: 54, 100, 0.000000 
atom, coeffidx, coeff: 54, 101, 0.000000 
atom, coeffidx, coeff: 54, 102, 0.000000 
atom, coeffidx, coeff: 54, 103, 0.000000 
atom, coeffidx, coeff: 54, 104, 0.000000 
atom, coeffidx, coeff: 54, 105, 0.000000 
atom, coeffidx, coeff: 54, 106, 0.000000 
atom, coeffidx, coeff: 54, 107, 0.000000 
atom, coeffidx, coeff: 54, 108, 0.000000 
atom, coeffidx, coeff: 54, 109, 0.000000 
atom, coeffidx, coeff: 54, 110, 0.000000 
atom, coeffidx, coeff: 54, 111, 0.000000 
atom, coeffidx, coeff: 54, 112, 0.000000 
atom, coeffidx, coeff: 54, 113, 0.000000 
atom, coeffidx, coeff: 54, 114, 0.000000 
atom, coeffidx, coeff: 54, 115, 0.000000 
atom, coeffidx, coeff: 54, 116, 0.000000 
atom, coeffidx, coeff: 54, 117, 0.000000 
atom, coeffidx, coeff: 54, 118, 0.000000 
atom, coeffidx, coeff: 54, 119, 0.000000 
atom, coeffidx, coeff: 54, 120, 0.000000 
atom, coeffidx, coeff: 54, 121, 0.000000 
atom, coeffidx, coeff: 54, 122, 0.000000 
atom, coeffidx, coeff: 54, 123, 0.000000 
atom, coeffidx, coeff: 54, 124, 0.000000 
atom, coeffidx, coeff: 54, 125, 0.000000 
atom, coeffidx, coeff: 54, 126, 0.000000 
atom, coeffidx, coeff: 54, 127, 0.000000 
atom, coeffidx, coeff: 54, 128, 0.000000 
atom, coeffidx, coeff: 54, 129, 0.000000 
atom, coeffidx, coeff: 54, 130, 0.000000 
atom, coeffidx, coeff: 54, 131, 0.000000 
atom, coeffidx, coeff: 54, 132, 0.000000 
atom, coeffidx, coeff: 54, 133, 0.000000 
atom, coeffidx, coeff: 54, 134, 0.000000 
atom, coeffidx, coeff: 54, 135, 0.000000 
atom, coeffidx, coeff: 54, 136, 0.000000 
atom, coeffidx, coeff: 54, 137, 0.000000 
atom, coeffidx, coeff: 54, 138, 0.000000 
atom, coeffidx, coeff: 54, 139, 0.000000 
atom, coeffidx, coeff: 54, 140, 0.000000 
atom, coeffidx, coeff: 54, 141, 0.000000 
atom, coeffidx, coeff: 54, 142, 0.000000 
atom, coeffidx, coeff: 54, 143, 0.000000 
atom, coeffidx, coeff: 54, 144, 0.000000 
atom, coeffidx, coeff: 54, 145, 0.000000 
atom, coeffidx, coeff: 54, 146, 0.000000 
atom, coeffidx, coeff: 54, 147, 0.000000 
atom, coeffidx, coeff: 54, 148, 0.000000 
atom, coeffidx, coeff: 54, 149, 0.000000 
atom, coeffidx, coeff: 54, 150, 0.000000 
atom, coeffidx, coeff: 54, 151, 0.000000 
atom, coeffidx, coeff: 54, 152, 0.000000 
atom, coeffidx, coeff: 54, 153, 0.000000 
atom, coeffidx, coeff: 54, 154, 0.000000 
atom, coeffidx, coeff: 54, 155, 0.000000 
atom, coeffidx, coeff: 54, 156, 0.000000 
atom, coeffidx, coeff: 54, 157, 0.000000 
atom, coeffidx, coeff: 54, 158, 0.000000 
atom, coeffidx, coeff: 54, 159, 207.367668 
atom, coeffidx, coeff: 54, 160, 3.275824 
atom, coeffidx, coeff: 54, 161, 106.733575 
atom, coeffidx, coeff: 54, 162, 19.494946 
atom, coeffidx, coeff: 54, 163, 1.553116 
atom, coeffidx, coeff: 54, 164, 19.888366 
atom, coeffidx, coeff: 54, 165, 1.832749 
atom, coeffidx, coeff: 54, 166, 0.758548 
atom, coeffidx, coeff: 54, 167, 3.788056 
function index: 0 
function index: 1 
function index: 2 
function index: 3 
function index: 4 
function index: 5 
atom, coeffidx, coeff: 55, 0, 0.000000 
atom, coeffidx, coeff: 55, 1, 0.000000 
atom, coeffidx, coeff: 55, 2, 14.255807 
atom, coeffidx, coeff: 55, 3, 0.000000 
atom, coeffidx, coeff: 55, 4, 0.000000 
atom, coeffidx, coeff: 55, 5, 14.255807 
atom, coeffidx, coeff: 55, 6, 0.000000 
atom, coeffidx, coeff: 55, 7, 0.000000 
atom, coeffidx, coeff: 55, 8, 0.000000 
atom, coeffidx, coeff: 55, 9, 0.000000 
atom, coeffidx, coeff: 55, 10, 0.000000 
atom, coeffidx, coeff: 55, 11, 0.000000 
atom, coeffidx, coeff: 55, 12, 0.000000 
atom, coeffidx, coeff: 55, 13, 0.000000 
atom, coeffidx, coeff: 55, 14, 0.000000 
atom, coeffidx, coeff: 55, 15, 0.000000 
atom, coeffidx, coeff: 55, 16, 0.000000 
atom, coeffidx, coeff: 55, 17, 0.000000 
atom, coeffidx, coeff: 55, 18, 0.000000 
atom, coeffidx, coeff: 55, 19, 0.000000 
atom, coeffidx, coeff: 55, 20, 0.000000 
atom, coeffidx, coeff: 55, 21, 0.000000 
atom, coeffidx, coeff: 55, 22, 0.000000 
atom, coeffidx, coeff: 55, 23, 0.000000 
atom, coeffidx, coeff: 55, 24, 0.000000 
atom, coeffidx, coeff: 55, 25, 0.000000 
atom, coeffidx, coeff: 55, 26, 0.000000 
atom, coeffidx, coeff: 55, 27, 0.000000 
atom, coeffidx, coeff: 55, 28, 0.000000 
atom, coeffidx, coeff: 55, 29, 0.000000 
atom, coeffidx, coeff: 55, 30, 0.000000 
atom, coeffidx, coeff: 55, 31, 0.000000 
atom, coeffidx, coeff: 55, 32, 0.000000 
atom, coeffidx, coeff: 55, 33, 0.000000 
atom, coeffidx, coeff: 55, 34, 0.000000 
atom, coeffidx, coeff: 55, 35, 0.000000 
atom, coeffidx, coeff: 55, 36, 0.000000 
atom, coeffidx, coeff: 55, 37, 0.000000 
atom, coeffidx, coeff: 55, 38, 0.000000 
atom, coeffidx, coeff: 55, 39, 0.000000 
atom, coeffidx, coeff: 55, 40, 0.000000 
atom, coeffidx, coeff: 55, 41, 0.000000 
atom, coeffidx, coeff: 55, 42, 0.000000 
atom, coeffidx, coeff: 55, 43, 0.000000 
atom, coeffidx, coeff: 55, 44, 0.000000 
atom, coeffidx, coeff: 55, 45, 0.000000 
atom, coeffidx, coeff: 55, 46, 0.000000 
atom, coeffidx, coeff: 55, 47, 0.000000 
atom, coeffidx, coeff: 55, 48, 0.000000 
atom, coeffidx, coeff: 55, 49, 0.000000 
atom, coeffidx, coeff: 55, 50, 0.000000 
atom, coeffidx, coeff: 55, 51, 0.000000 
atom, coeffidx, coeff: 55, 52, 0.000000 
atom, coeffidx, coeff: 55, 53, 0.000000 
atom, coeffidx, coeff: 55, 54, 0.000000 
atom, coeffidx, coeff: 55, 55, 0.000000 
atom, coeffidx, coeff: 55, 56, 0.000000 
atom, coeffidx, coeff: 55, 57, 0.000000 
atom, coeffidx, coeff: 55, 58, 0.000000 
atom, coeffidx, coeff: 55, 59, 0.000000 
atom, coeffidx, coeff: 55, 60, 0.000000 
atom, coeffidx, coeff: 55, 61, 0.000000 
atom, coeffidx, coeff: 55, 62, 0.000000 
atom, coeffidx, coeff: 55, 63, 0.000000 
atom, coeffidx, coeff: 55, 64, 0.000000 
atom, coeffidx, coeff: 55, 65, 0.000000 
atom, coeffidx, coeff: 55, 66, 0.000000 
atom, coeffidx, coeff: 55, 67, 0.000000 
atom, coeffidx, coeff: 55, 68, 0.000000 
atom, coeffidx, coeff: 55, 69, 0.000000 
atom, coeffidx, coeff: 55, 70, 0.000000 
atom, coeffidx, coeff: 55, 71, 0.000000 
atom, coeffidx, coeff: 55, 72, 0.000000 
atom, coeffidx, coeff: 55, 73, 0.000000 
atom, coeffidx, coeff: 55, 74, 0.000000 
atom, coeffidx, coeff: 55, 75, 0.000000 
atom, coeffidx, coeff: 55, 76, 0.000000 
atom, coeffidx, coeff: 55, 77, 0.000000 
atom, coeffidx, coeff: 55, 78, 203.228042 
atom, coeffidx, coeff: 55, 79, 1.890034 
atom, coeffidx, coeff: 55, 80, 47.278431 
atom, coeffidx, coeff: 55, 81, 25.988952 
atom, coeffidx, coeff: 55, 82, 0.615711 
atom, coeffidx, coeff: 55, 83, 11.947196 
atom, coeffidx, coeff: 55, 84, 3.323486 
atom, coeffidx, coeff: 55, 85, 0.204368 
atom, coeffidx, coeff: 55, 86, 3.023363 
atom, coeffidx, coeff: 55, 87, 0.000000 
atom, coeffidx, coeff: 55, 88, 0.000000 
atom, coeffidx, coeff: 55, 89, 0.000000 
atom, coeffidx, coeff: 55, 90, 0.000000 
atom, coeffidx, coeff: 55, 91, 0.000000 
atom, coeffidx, coeff: 55, 92, 0.000000 
atom, coeffidx, coeff: 55, 93, 0.000000 
atom, coeffidx, coeff: 55, 94, 0.000000 
atom, coeffidx, coeff: 55, 95, 0.000000 
atom, coeffidx, coeff: 55, 96, 0.000000 
atom, coeffidx, coeff: 55, 97, 0.000000 
atom, coeffidx, coeff: 55, 98, 0.000000 
atom, coeffidx, coeff: 55, 99, 0.000000 
atom, coeffidx, coeff: 55, 100, 0.000000 
atom, coeffidx, coeff: 55, 101, 0.000000 
atom, coeffidx, coeff: 55, 102, 0.000000 
atom, coeffidx, coeff: 55, 103, 0.000000 
atom, coeffidx, coeff: 55, 104, 0.000000 
atom, coeffidx, coeff: 55, 105, 0.000000 
atom, coeffidx, coeff: 55, 106, 0.000000 
atom, coeffidx, coeff: 55, 107, 0.000000 
atom, coeffidx, coeff: 55, 108, 0.000000 
atom, coeffidx, coeff: 55, 109, 0.000000 
atom, coeffidx, coeff: 55, 110, 0.000000 
atom, coeffidx, coeff: 55, 111, 0.000000 
atom, coeffidx, coeff: 55, 112, 0.000000 
atom, coeffidx, coeff: 55, 113, 0.000000 
atom, coeffidx, coeff: 55, 114, 0.000000 
atom, coeffidx, coeff: 55, 115, 0.000000 
atom, coeffidx, coeff: 55, 116, 0.000000 
atom, coeffidx, coeff: 55, 117, 0.000000 
atom, coeffidx, coeff: 55, 118, 0.000000 
atom, coeffidx, coeff: 55, 119, 0.000000 
atom, coeffidx, coeff: 55, 120, 0.000000 
atom, coeffidx, coeff: 55, 121, 0.000000 
atom, coeffidx, coeff: 55, 122, 0.000000 
atom, coeffidx, coeff: 55, 123, 0.000000 
atom, coeffidx, coeff: 55, 124, 0.000000 
atom, coeffidx, coeff: 55, 125, 0.000000 
atom, coeffidx, coeff: 55, 126, 0.000000 
atom, coeffidx, coeff: 55, 127, 0.000000 
atom, coeffidx, coeff: 55, 128, 0.000000 
atom, coeffidx, coeff: 55, 129, 0.000000 
atom, coeffidx, coeff: 55, 130, 0.000000 
atom, coeffidx, coeff: 55, 131, 0.000000 
atom, coeffidx, coeff: 55, 132, 0.000000 
atom, coeffidx, coeff: 55, 133, 0.000000 
atom, coeffidx, coeff: 55, 134, 0.000000 
atom, coeffidx, coeff: 55, 135, 0.000000 
atom, coeffidx, coeff: 55, 136, 0.000000 
atom, coeffidx, coeff: 55, 137, 0.000000 
atom, coeffidx, coeff: 55, 138, 0.000000 
atom, coeffidx, coeff: 55, 139, 0.000000 
atom, coeffidx, coeff: 55, 140, 0.000000 
atom, coeffidx, coeff: 55, 141, 0.000000 
atom, coeffidx, coeff: 55, 142, 0.000000 
atom, coeffidx, coeff: 55, 143, 0.000000 
atom, coeffidx, coeff: 55, 144, 0.000000 
atom, coeffidx, coeff: 55, 145, 0.000000 
atom, coeffidx, coeff: 55, 146, 0.000000 
atom, coeffidx, coeff: 55, 147, 0.000000 
atom, coeffidx, coeff: 55, 148, 0.000000 
atom, coeffidx, coeff: 55, 149, 0.000000 
atom, coeffidx, coeff: 55, 150, 0.000000 
atom, coeffidx, coeff: 55, 151, 0.000000 
atom, coeffidx, coeff: 55, 152, 0.000000 
atom, coeffidx, coeff: 55, 153, 0.000000 
atom, coeffidx, coeff: 55, 154, 0.000000 
atom, coeffidx, coeff: 55, 155, 0.000000 
atom, coeffidx, coeff: 55, 156, 0.000000 
atom, coeffidx, coeff: 55, 157, 0.000000 
atom, coeffidx, coeff: 55, 158, 0.000000 
atom, coeffidx, coeff: 55, 159, 203.228042 
atom, coeffidx, coeff: 55, 160, 1.890034 
atom, coeffidx, coeff: 55, 161, 47.278431 
atom, coeffidx, coeff: 55, 162, 25.988952 
atom, coeffidx, coeff: 55, 163, 0.615711 
atom, coeffidx, coeff: 55, 164, 11.947196 
atom, coeffidx, coeff: 55, 165, 3.323486 
atom, coeffidx, coeff: 55, 166, 0.204368 
atom, coeffidx, coeff: 55, 167, 3.023363 
       0            0  -0.12928757            0            0            0            0            0            0            0            0            0            0            0            0            0            0            0            0            0            0            0            0            0            0            0            0            0            0            0            0            0            0            0            0  -0.91939756  -0.51222708   -1.2190758  -0.12267656  -0.25815884   -0.4533903   0.64237205  -0.21714781   0.45289772  -0.91939756  -0.51222708   -1.2190758    4.9200166  -0.50208083    1.9054228   0.64237205  -0.21714781   0.45289772            0            0            0            0            0            0            0            0            0  -0.91939756  -0.51222708   -1.2190758  -0.12267656  -0.25815884   -0.4533903   0.64237205  -0.21714781   0.45289772  -0.91939756  -0.51222708   -1.2190758    4.9200166  -0.50208083    1.9054228   0.64237205  -0.21714781   0.45289772   -1.8387951   -1.0244542   -2.4381516    4.7973401  -0.76023967    1.4520325    1.2847441  -0.43429562   0.90579544            0            0            0            0            0            0            0            0            0            0            0            0            0            0            0            0            0            0            0            0            0            0            0            0            0            0            0  -0.91939756  -0.51222708   -1.2190758  -0.12267656  -0.25815884   -0.4533903   0.64237205  -0.21714781   0.45289772  -0.91939756  -0.51222708   -1.2190758    4.9200166  -0.50208083    1.9054228   0.64237205  -0.21714781   0.45289772            0            0            0            0            0            0            0            0            0  -0.91939756  -0.51222708   -1.2190758  -0.12267656  -0.25815884   -0.4533903   0.64237205  -0.21714781   0.45289772  -0.91939756  -0.51222708   -1.2190758    4.9200166  -0.50208083    1.9054228   0.64237205  -0.21714781   0.45289772   -1.8387951   -1.0244542   -2.4381516    4.7973401  -0.76023967    1.4520325    1.2847441  -0.43429562   0.90579544 -0.089333972            0            0            0            0            0            0            0            0            0            0            0            0            0            0            0            0            0            0            0            0            0            0            0            0            0            0            0            0            0            0            0            0  -0.63562164    2.0640631    16.942042 -0.073751891    1.0497845    4.2842405   0.14542181   0.46190066    1.1995806  -0.63562164    2.0640631    16.942042    1.3354978   0.88813216    4.4333939   0.14542181   0.46190066    1.1995806            0            0            0            0            0            0            0            0            0  -0.63562164    2.0640631    16.942042 -0.073751891    1.0497845    4.2842405   0.14542181   0.46190066    1.1995806  -0.63562164    2.0640631    16.942042    1.3354978   0.88813216    4.4333939   0.14542181   0.46190066    1.1995806   -1.2712433    4.1281262    33.884083    1.2617459    1.9379167    8.7176344   0.29084362   0.92380131    2.3991612            0            0            0            0            0            0            0            0            0            0            0            0            0            0            0            0            0            0            0            0            0            0            0            0            0            0            0  -0.63562164    2.0640631    16.942042 -0.073751891    1.0497845    4.2842405   0.14542181   0.46190066    1.1995806  -0.63562164    2.0640631    16.942042    1.3354978   0.88813216    4.4333939   0.14542181   0.46190066    1.1995806            0            0            0            0            0            0            0            0            0  -0.63562164    2.0640631    16.942042 -0.073751891    1.0497845    4.2842405   0.14542181   0.46190066    1.1995806  -0.63562164    2.0640631    16.942042    1.3354978   0.88813216    4.4333939   0.14542181   0.46190066    1.1995806   -1.2712433    4.1281262    33.884083    1.2617459    1.9379167    8.7176344   0.29084362   0.92380131    2.3991612  -0.21862154            0            0            0            0            0            0            0            0            0            0            0            0            0            0            0            0            0            0            0            0            0            0            0            0            0            0            0            0            0            0            0            0   -1.5741042    5.0810068   -20.095983   -0.1479839    2.6115293    -4.342173   0.59418328    1.3450867   0.96907513   -1.5741042    5.0810068   -20.095983    6.3203254    2.6049968     5.698839   0.59418328    1.3450867   0.96907513            0            0            0            0            0            0            0            0            0   -1.5741042    5.0810068   -20.095983   -0.1479839    2.6115293    -4.342173   0.59418328    1.3450867   0.96907513   -1.5741042    5.0810068   -20.095983    6.3203254    2.6049968     5.698839   0.59418328    1.3450867   0.96907513   -3.1482084    10.162014   -40.191965    6.1723415    5.2165261     1.356666    1.1883666    2.6901734    1.9381503            0            0            0            0            0            0            0            0            0            0            0            0            0            0            0            0            0            0            0            0            0            0            0            0            0            0            0   -1.5741042    5.0810068   -20.095983   -0.1479839    2.6115293    -4.342173   0.59418328    1.3450867   0.96907513   -1.5741042    5.0810068   -20.095983    6.3203254    2.6049968     5.698839   0.59418328    1.3450867   0.96907513            0            0            0            0            0            0            0            0            0   -1.5741042    5.0810068   -20.095983   -0.1479839    2.6115293    -4.342173   0.59418328    1.3450867   0.96907513   -1.5741042    5.0810068   -20.095983    6.3203254    2.6049968     5.698839   0.59418328    1.3450867   0.96907513   -3.1482084    10.162014   -40.191965    6.1723415    5.2165261     1.356666    1.1883666    2.6901734    1.9381503 
Loop time of 1.886e-06 on 1 procs for 0 steps with 56 atoms

0.0% CPU use with 1 MPI tasks x 1 OpenMP threads

MPI task timing breakdown:
Section |  min time  |  avg time  |  max time  |%varavg| %total
---------------------------------------------------------------
Pair    | 0          | 0          | 0          |   0.0 |  0.00
Neigh   | 0          | 0          | 0          |   0.0 |  0.00
Comm    | 0          | 0          | 0          |   0.0 |  0.00
Output  | 0          | 0          | 0          |   0.0 |  0.00
Modify  | 0          | 0          | 0          |   0.0 |  0.00
Other   |            | 1.886e-06  |            |       |100.00

Nlocal:             56 ave          56 max          56 min
Histogram: 1 0 0 0 0 0 0 0 0 0
Nghost:            819 ave         819 max         819 min
Histogram: 1 0 0 0 0 0 0 0 0 0
Neighs:           3320 ave        3320 max        3320 min
Histogram: 1 0 0 0 0 0 0 0 0 0
FullNghs:         6640 ave        6640 max        6640 min
Histogram: 1 0 0 0 0 0 0 0 0 0

Total # of neighbors = 6640
Ave neighs/atom = 118.57143
Neighbor list builds = 0
Dangerous builds = 0
Total wall time: 0:00:02
