LAMMPS (7 Jan 2022)
OMP_NUM_THREADS environment is not set. Defaulting to 1 thread. (src/comm.cpp:98)
  using 1 OpenMP thread(s) per MPI task
Reading data file ...
  orthogonal box = (0 0 0) to (10 10 10)
  1 by 1 by 1 MPI processor grid
  reading atoms ...
  56 atoms
  read_data CPU = 0.001 seconds
ACE version: 2021.10.25
Product evaluator is used
Loading coupling_coefficients.yace
Total number of basis functions
	C: 6 (r=1) 162 (r>1)
	H: 6 (r=1) 162 (r>1)
	O: 6 (r=1) 162 (r>1)
Mapping LAMMPS atom type #1(C) -> ACE species type #0
Mapping LAMMPS atom type #2(H) -> ACE species type #1
Mapping LAMMPS atom type #3(O) -> ACE species type #2
atomntypes: 3 
n_r1, n_rp: 6 162
nperdim,sizearraycols, 168 505 
  generated 0 of 3 mixed pair_coeff terms from geometric mixing rule
Neighbor list info ...
  update every 2 steps, delay 10 steps, check yes
  max neighbors/atom: 2000, page size: 100000
  master list distance cutoff = 7.802
  ghost atom cutoff = 7.802
  binsize = 3.901, bins = 3 3 3
  2 neighbor lists, perpetual/occasional/extra = 1 1 0
  (1) pair zero, perpetual
      attributes: half, newton on
      pair build: half/bin/atomonly/newton
      stencil: half/bin/3d
      bin: standard
  (2) compute pace, occasional
      attributes: full, newton on
      pair build: full/bin/atomonly
      stencil: full/bin/3d
      bin: standard
Setting up Verlet run ...
  Unit style    : metal
  Current step  : 0
  Time step     : 0.0005
Per MPI rank memory allocation (min/avg/max) = 6.326 | 6.326 | 6.326 Mbytes
Step Temp c_desc[1][1] c_desc[1][2] c_desc[1][3] c_desc[1][4] c_desc[1][5] c_desc[1][6] c_desc[1][7] c_desc[1][8] c_desc[1][9] c_desc[1][10] c_desc[1][11] c_desc[1][12] c_desc[1][13] c_desc[1][14] c_desc[1][15] c_desc[1][16] c_desc[1][17] c_desc[1][18] c_desc[1][19] c_desc[1][20] c_desc[1][21] c_desc[1][22] c_desc[1][23] c_desc[1][24] c_desc[1][25] c_desc[1][26] c_desc[1][27] c_desc[1][28] c_desc[1][29] c_desc[1][30] c_desc[1][31] c_desc[1][32] c_desc[1][33] c_desc[1][34] c_desc[1][35] c_desc[1][36] c_desc[1][37] c_desc[1][38] c_desc[1][39] c_desc[1][40] c_desc[1][41] c_desc[1][42] c_desc[1][43] c_desc[1][44] c_desc[1][45] c_desc[1][46] c_desc[1][47] c_desc[1][48] c_desc[1][49] c_desc[1][50] c_desc[1][51] c_desc[1][52] c_desc[1][53] c_desc[1][54] c_desc[1][55] c_desc[1][56] c_desc[1][57] c_desc[1][58] c_desc[1][59] c_desc[1][60] c_desc[1][61] c_desc[1][62] c_desc[1][63] c_desc[1][64] c_desc[1][65] c_desc[1][66] c_desc[1][67] c_desc[1][68] c_desc[1][69] c_desc[1][70] c_desc[1][71] c_desc[1][72] c_desc[1][73] c_desc[1][74] c_desc[1][75] c_desc[1][76] c_desc[1][77] c_desc[1][78] c_desc[1][79] c_desc[1][80] c_desc[1][81] c_desc[1][82] c_desc[1][83] c_desc[1][84] c_desc[1][85] c_desc[1][86] c_desc[1][87] c_desc[1][88] c_desc[1][89] c_desc[1][90] c_desc[1][91] c_desc[1][92] c_desc[1][93] c_desc[1][94] c_desc[1][95] c_desc[1][96] c_desc[1][97] c_desc[1][98] c_desc[1][99] c_desc[1][100] c_desc[1][101] c_desc[1][102] c_desc[1][103] c_desc[1][104] c_desc[1][105] c_desc[1][106] c_desc[1][107] c_desc[1][108] c_desc[1][109] c_desc[1][110] c_desc[1][111] c_desc[1][112] c_desc[1][113] c_desc[1][114] c_desc[1][115] c_desc[1][116] c_desc[1][117] c_desc[1][118] c_desc[1][119] c_desc[1][120] c_desc[1][121] c_desc[1][122] c_desc[1][123] c_desc[1][124] c_desc[1][125] c_desc[1][126] c_desc[1][127] c_desc[1][128] c_desc[1][129] c_desc[1][130] c_desc[1][131] c_desc[1][132] c_desc[1][133] c_desc[1][134] c_desc[1][135] c_desc[1][136] c_desc[1][137] c_desc[1][138] c_desc[1][139] c_desc[1][140] c_desc[1][141] c_desc[1][142] c_desc[1][143] c_desc[1][144] c_desc[1][145] c_desc[1][146] c_desc[1][147] c_desc[1][148] c_desc[1][149] c_desc[1][150] c_desc[1][151] c_desc[1][152] c_desc[1][153] c_desc[1][154] c_desc[1][155] c_desc[1][156] c_desc[1][157] c_desc[1][158] c_desc[1][159] c_desc[1][160] c_desc[1][161] c_desc[1][162] c_desc[1][163] c_desc[1][164] c_desc[1][165] c_desc[1][166] c_desc[1][167] c_desc[1][168] c_desc[1][169] c_desc[1][170] c_desc[1][171] c_desc[1][172] c_desc[1][173] c_desc[1][174] c_desc[1][175] c_desc[1][176] c_desc[1][177] c_desc[1][178] c_desc[1][179] c_desc[1][180] c_desc[1][181] c_desc[1][182] c_desc[1][183] c_desc[1][184] c_desc[1][185] c_desc[1][186] c_desc[1][187] c_desc[1][188] c_desc[1][189] c_desc[1][190] c_desc[1][191] c_desc[1][192] c_desc[1][193] c_desc[1][194] c_desc[1][195] c_desc[1][196] c_desc[1][197] c_desc[1][198] c_desc[1][199] c_desc[1][200] c_desc[1][201] c_desc[1][202] c_desc[1][203] c_desc[1][204] c_desc[1][205] c_desc[1][206] c_desc[1][207] c_desc[1][208] c_desc[1][209] c_desc[1][210] c_desc[1][211] c_desc[1][212] c_desc[1][213] c_desc[1][214] c_desc[1][215] c_desc[1][216] c_desc[1][217] c_desc[1][218] c_desc[1][219] c_desc[1][220] c_desc[1][221] c_desc[1][222] c_desc[1][223] c_desc[1][224] c_desc[1][225] c_desc[1][226] c_desc[1][227] c_desc[1][228] c_desc[1][229] c_desc[1][230] c_desc[1][231] c_desc[1][232] c_desc[1][233] c_desc[1][234] c_desc[1][235] c_desc[1][236] c_desc[1][237] c_desc[1][238] c_desc[1][239] c_desc[1][240] c_desc[1][241] c_desc[1][242] c_desc[1][243] c_desc[1][244] c_desc[1][245] c_desc[1][246] c_desc[1][247] c_desc[1][248] c_desc[1][249] c_desc[1][250] c_desc[1][251] c_desc[1][252] c_desc[1][253] c_desc[1][254] c_desc[1][255] c_desc[1][256] c_desc[1][257] c_desc[1][258] c_desc[1][259] c_desc[1][260] c_desc[1][261] c_desc[1][262] c_desc[1][263] c_desc[1][264] c_desc[1][265] c_desc[1][266] c_desc[1][267] c_desc[1][268] c_desc[1][269] c_desc[1][270] c_desc[1][271] c_desc[1][272] c_desc[1][273] c_desc[1][274] c_desc[1][275] c_desc[1][276] c_desc[1][277] c_desc[1][278] c_desc[1][279] c_desc[1][280] c_desc[1][281] c_desc[1][282] c_desc[1][283] c_desc[1][284] c_desc[1][285] c_desc[1][286] c_desc[1][287] c_desc[1][288] c_desc[1][289] c_desc[1][290] c_desc[1][291] c_desc[1][292] c_desc[1][293] c_desc[1][294] c_desc[1][295] c_desc[1][296] c_desc[1][297] c_desc[1][298] c_desc[1][299] c_desc[1][300] c_desc[1][301] c_desc[1][302] c_desc[1][303] c_desc[1][304] c_desc[1][305] c_desc[1][306] c_desc[1][307] c_desc[1][308] c_desc[1][309] c_desc[1][310] c_desc[1][311] c_desc[1][312] c_desc[1][313] c_desc[1][314] c_desc[1][315] c_desc[1][316] c_desc[1][317] c_desc[1][318] c_desc[1][319] c_desc[1][320] c_desc[1][321] c_desc[1][322] c_desc[1][323] c_desc[1][324] c_desc[1][325] c_desc[1][326] c_desc[1][327] c_desc[1][328] c_desc[1][329] c_desc[1][330] c_desc[1][331] c_desc[1][332] c_desc[1][333] c_desc[1][334] c_desc[1][335] c_desc[1][336] c_desc[1][337] c_desc[1][338] c_desc[1][339] c_desc[1][340] c_desc[1][341] c_desc[1][342] c_desc[1][343] c_desc[1][344] c_desc[1][345] c_desc[1][346] c_desc[1][347] c_desc[1][348] c_desc[1][349] c_desc[1][350] c_desc[1][351] c_desc[1][352] c_desc[1][353] c_desc[1][354] c_desc[1][355] c_desc[1][356] c_desc[1][357] c_desc[1][358] c_desc[1][359] c_desc[1][360] c_desc[1][361] c_desc[1][362] c_desc[1][363] c_desc[1][364] c_desc[1][365] c_desc[1][366] c_desc[1][367] c_desc[1][368] c_desc[1][369] c_desc[1][370] c_desc[1][371] c_desc[1][372] c_desc[1][373] c_desc[1][374] c_desc[1][375] c_desc[1][376] c_desc[1][377] c_desc[1][378] c_desc[1][379] c_desc[1][380] c_desc[1][381] c_desc[1][382] c_desc[1][383] c_desc[1][384] c_desc[1][385] c_desc[1][386] c_desc[1][387] c_desc[1][388] c_desc[1][389] c_desc[1][390] c_desc[1][391] c_desc[1][392] c_desc[1][393] c_desc[1][394] c_desc[1][395] c_desc[1][396] 
beginning of en basis loop
function index: 0 
function index: 1 
function index: 2 
function index: 3 
function index: 4 
function index: 5 
atom, coeffidx, coeff: 0, 0, 0.000000 
atom, coeffidx, coeff: 0, 1, 0.000000 
atom, coeffidx, coeff: 0, 2, 14.400266 
atom, coeffidx, coeff: 0, 3, 0.000000 
atom, coeffidx, coeff: 0, 4, 0.000000 
atom, coeffidx, coeff: 0, 5, 14.400266 
atom, coeffidx, coeff: 0, 6, 0.000000 
atom, coeffidx, coeff: 0, 7, 0.000000 
atom, coeffidx, coeff: 0, 8, 0.000000 
atom, coeffidx, coeff: 0, 9, 0.000000 
atom, coeffidx, coeff: 0, 10, 0.000000 
atom, coeffidx, coeff: 0, 11, 0.000000 
atom, coeffidx, coeff: 0, 12, 0.000000 
atom, coeffidx, coeff: 0, 13, 0.000000 
atom, coeffidx, coeff: 0, 14, 0.000000 
atom, coeffidx, coeff: 0, 15, 0.000000 
atom, coeffidx, coeff: 0, 16, 0.000000 
atom, coeffidx, coeff: 0, 17, 0.000000 
atom, coeffidx, coeff: 0, 18, 0.000000 
atom, coeffidx, coeff: 0, 19, 0.000000 
atom, coeffidx, coeff: 0, 20, 0.000000 
atom, coeffidx, coeff: 0, 21, 0.000000 
atom, coeffidx, coeff: 0, 22, 0.000000 
atom, coeffidx, coeff: 0, 23, 0.000000 
atom, coeffidx, coeff: 0, 24, 0.000000 
atom, coeffidx, coeff: 0, 25, 0.000000 
atom, coeffidx, coeff: 0, 26, 0.000000 
atom, coeffidx, coeff: 0, 27, 0.000000 
atom, coeffidx, coeff: 0, 28, 0.000000 
atom, coeffidx, coeff: 0, 29, 0.000000 
atom, coeffidx, coeff: 0, 30, 0.000000 
atom, coeffidx, coeff: 0, 31, 0.000000 
atom, coeffidx, coeff: 0, 32, 0.000000 
atom, coeffidx, coeff: 0, 33, 0.000000 
atom, coeffidx, coeff: 0, 34, 0.000000 
atom, coeffidx, coeff: 0, 35, 0.000000 
atom, coeffidx, coeff: 0, 36, 0.000000 
atom, coeffidx, coeff: 0, 37, 0.000000 
atom, coeffidx, coeff: 0, 38, 0.000000 
atom, coeffidx, coeff: 0, 39, 0.000000 
atom, coeffidx, coeff: 0, 40, 0.000000 
atom, coeffidx, coeff: 0, 41, 0.000000 
atom, coeffidx, coeff: 0, 42, 0.000000 
atom, coeffidx, coeff: 0, 43, 0.000000 
atom, coeffidx, coeff: 0, 44, 0.000000 
atom, coeffidx, coeff: 0, 45, 0.000000 
atom, coeffidx, coeff: 0, 46, 0.000000 
atom, coeffidx, coeff: 0, 47, 0.000000 
atom, coeffidx, coeff: 0, 48, 0.000000 
atom, coeffidx, coeff: 0, 49, 0.000000 
atom, coeffidx, coeff: 0, 50, 0.000000 
atom, coeffidx, coeff: 0, 51, 0.000000 
atom, coeffidx, coeff: 0, 52, 0.000000 
atom, coeffidx, coeff: 0, 53, 0.000000 
atom, coeffidx, coeff: 0, 54, 0.000000 
atom, coeffidx, coeff: 0, 55, 0.000000 
atom, coeffidx, coeff: 0, 56, 0.000000 
atom, coeffidx, coeff: 0, 57, 0.000000 
atom, coeffidx, coeff: 0, 58, 0.000000 
atom, coeffidx, coeff: 0, 59, 0.000000 
atom, coeffidx, coeff: 0, 60, 0.000000 
atom, coeffidx, coeff: 0, 61, 0.000000 
atom, coeffidx, coeff: 0, 62, 0.000000 
atom, coeffidx, coeff: 0, 63, 0.000000 
atom, coeffidx, coeff: 0, 64, 0.000000 
atom, coeffidx, coeff: 0, 65, 0.000000 
atom, coeffidx, coeff: 0, 66, 0.000000 
atom, coeffidx, coeff: 0, 67, 0.000000 
atom, coeffidx, coeff: 0, 68, 0.000000 
atom, coeffidx, coeff: 0, 69, 0.000000 
atom, coeffidx, coeff: 0, 70, 0.000000 
atom, coeffidx, coeff: 0, 71, 0.000000 
atom, coeffidx, coeff: 0, 72, 0.000000 
atom, coeffidx, coeff: 0, 73, 0.000000 
atom, coeffidx, coeff: 0, 74, 0.000000 
atom, coeffidx, coeff: 0, 75, 0.000000 
atom, coeffidx, coeff: 0, 76, 0.000000 
atom, coeffidx, coeff: 0, 77, 0.000000 
atom, coeffidx, coeff: 0, 78, 207.367668 
atom, coeffidx, coeff: 0, 79, 3.275824 
atom, coeffidx, coeff: 0, 80, 106.733575 
atom, coeffidx, coeff: 0, 81, 19.494946 
atom, coeffidx, coeff: 0, 82, 1.553116 
atom, coeffidx, coeff: 0, 83, 19.888366 
atom, coeffidx, coeff: 0, 84, 1.832749 
atom, coeffidx, coeff: 0, 85, 0.758548 
atom, coeffidx, coeff: 0, 86, 3.788056 
atom, coeffidx, coeff: 0, 87, 0.000000 
atom, coeffidx, coeff: 0, 88, 0.000000 
atom, coeffidx, coeff: 0, 89, 0.000000 
atom, coeffidx, coeff: 0, 90, 0.000000 
atom, coeffidx, coeff: 0, 91, 0.000000 
atom, coeffidx, coeff: 0, 92, 0.000000 
atom, coeffidx, coeff: 0, 93, 0.000000 
atom, coeffidx, coeff: 0, 94, 0.000000 
atom, coeffidx, coeff: 0, 95, 0.000000 
atom, coeffidx, coeff: 0, 96, 0.000000 
atom, coeffidx, coeff: 0, 97, 0.000000 
atom, coeffidx, coeff: 0, 98, 0.000000 
atom, coeffidx, coeff: 0, 99, 0.000000 
atom, coeffidx, coeff: 0, 100, 0.000000 
atom, coeffidx, coeff: 0, 101, 0.000000 
atom, coeffidx, coeff: 0, 102, 0.000000 
atom, coeffidx, coeff: 0, 103, 0.000000 
atom, coeffidx, coeff: 0, 104, 0.000000 
atom, coeffidx, coeff: 0, 105, 0.000000 
atom, coeffidx, coeff: 0, 106, 0.000000 
atom, coeffidx, coeff: 0, 107, 0.000000 
atom, coeffidx, coeff: 0, 108, 0.000000 
atom, coeffidx, coeff: 0, 109, 0.000000 
atom, coeffidx, coeff: 0, 110, 0.000000 
atom, coeffidx, coeff: 0, 111, 0.000000 
atom, coeffidx, coeff: 0, 112, 0.000000 
atom, coeffidx, coeff: 0, 113, 0.000000 
atom, coeffidx, coeff: 0, 114, 0.000000 
atom, coeffidx, coeff: 0, 115, 0.000000 
atom, coeffidx, coeff: 0, 116, 0.000000 
atom, coeffidx, coeff: 0, 117, 0.000000 
atom, coeffidx, coeff: 0, 118, 0.000000 
atom, coeffidx, coeff: 0, 119, 0.000000 
atom, coeffidx, coeff: 0, 120, 0.000000 
atom, coeffidx, coeff: 0, 121, 0.000000 
atom, coeffidx, coeff: 0, 122, 0.000000 
atom, coeffidx, coeff: 0, 123, 0.000000 
atom, coeffidx, coeff: 0, 124, 0.000000 
atom, coeffidx, coeff: 0, 125, 0.000000 
atom, coeffidx, coeff: 0, 126, 0.000000 
atom, coeffidx, coeff: 0, 127, 0.000000 
atom, coeffidx, coeff: 0, 128, 0.000000 
atom, coeffidx, coeff: 0, 129, 0.000000 
atom, coeffidx, coeff: 0, 130, 0.000000 
atom, coeffidx, coeff: 0, 131, 0.000000 
atom, coeffidx, coeff: 0, 132, 0.000000 
atom, coeffidx, coeff: 0, 133, 0.000000 
atom, coeffidx, coeff: 0, 134, 0.000000 
atom, coeffidx, coeff: 0, 135, 0.000000 
atom, coeffidx, coeff: 0, 136, 0.000000 
atom, coeffidx, coeff: 0, 137, 0.000000 
atom, coeffidx, coeff: 0, 138, 0.000000 
atom, coeffidx, coeff: 0, 139, 0.000000 
atom, coeffidx, coeff: 0, 140, 0.000000 
atom, coeffidx, coeff: 0, 141, 0.000000 
atom, coeffidx, coeff: 0, 142, 0.000000 
atom, coeffidx, coeff: 0, 143, 0.000000 
atom, coeffidx, coeff: 0, 144, 0.000000 
atom, coeffidx, coeff: 0, 145, 0.000000 
atom, coeffidx, coeff: 0, 146, 0.000000 
atom, coeffidx, coeff: 0, 147, 0.000000 
atom, coeffidx, coeff: 0, 148, 0.000000 
atom, coeffidx, coeff: 0, 149, 0.000000 
atom, coeffidx, coeff: 0, 150, 0.000000 
atom, coeffidx, coeff: 0, 151, 0.000000 
atom, coeffidx, coeff: 0, 152, 0.000000 
atom, coeffidx, coeff: 0, 153, 0.000000 
atom, coeffidx, coeff: 0, 154, 0.000000 
atom, coeffidx, coeff: 0, 155, 0.000000 
atom, coeffidx, coeff: 0, 156, 0.000000 
atom, coeffidx, coeff: 0, 157, 0.000000 
atom, coeffidx, coeff: 0, 158, 0.000000 
atom, coeffidx, coeff: 0, 159, 207.367668 
atom, coeffidx, coeff: 0, 160, 3.275824 
atom, coeffidx, coeff: 0, 161, 106.733575 
atom, coeffidx, coeff: 0, 162, 19.494946 
atom, coeffidx, coeff: 0, 163, 1.553116 
atom, coeffidx, coeff: 0, 164, 19.888366 
atom, coeffidx, coeff: 0, 165, 1.832749 
atom, coeffidx, coeff: 0, 166, 0.758548 
atom, coeffidx, coeff: 0, 167, 3.788056 
atom, coeffidx, coeff: 0, 168, 0.000000 
atom, coeffidx, coeff: 0, 169, 0.000000 
atom, coeffidx, coeff: 0, 170, 0.000000 
atom, coeffidx, coeff: 0, 171, 0.000000 
atom, coeffidx, coeff: 0, 172, 0.000000 
atom, coeffidx, coeff: 0, 173, 0.000000 
atom, coeffidx, coeff: 0, 174, 0.000000 
atom, coeffidx, coeff: 0, 175, 0.000000 
atom, coeffidx, coeff: 0, 176, 0.000000 
atom, coeffidx, coeff: 0, 177, 0.000000 
atom, coeffidx, coeff: 0, 178, 0.000000 
atom, coeffidx, coeff: 0, 179, 0.000000 
atom, coeffidx, coeff: 0, 180, 768131885900308709163589197587773655726646631228870914299266366527569781150412345148457726684344057314631652335973127086277142915967440912384.000000 
atom, coeffidx, coeff: 0, 181, 0.000000 
atom, coeffidx, coeff: 0, 182, 0.000000 
atom, coeffidx, coeff: 0, 183, 0.000000 
atom, coeffidx, coeff: 0, 184, 0.000000 
atom, coeffidx, coeff: 0, 185, 0.000000 
atom, coeffidx, coeff: 0, 186, 0.000000 
atom, coeffidx, coeff: 0, 187, 0.000000 
atom, coeffidx, coeff: 0, 188, 0.000000 
atom, coeffidx, coeff: 0, 189, 0.000000 
atom, coeffidx, coeff: 0, 190, 0.000000 
atom, coeffidx, coeff: 0, 191, 0.000000 
atom, coeffidx, coeff: 0, 192, 0.000000 
atom, coeffidx, coeff: 0, 193, 0.000000 
atom, coeffidx, coeff: 0, 194, 0.000000 
atom, coeffidx, coeff: 0, 195, 0.000000 
atom, coeffidx, coeff: 0, 196, 0.000000 
atom, coeffidx, coeff: 0, 197, 0.000000 
atom, coeffidx, coeff: 0, 198, 0.000000 
atom, coeffidx, coeff: 0, 199, 13560422102480787298481429067340956997952061020834964059894860068979716861769624561921528604523258739066827003040295600664814085169915278537154808259819643939409887232.000000 
atom, coeffidx, coeff: 0, 200, 0.000000 
atom, coeffidx, coeff: 0, 201, 0.000000 
atom, coeffidx, coeff: 0, 202, 89991526910876127548284106677843456539274349597277255964239466573343686116314846570913117864936057003958100366306008398232178130944.000000 
atom, coeffidx, coeff: 0, 203, 0.000000 
atom, coeffidx, coeff: 0, 204, 0.000000 
atom, coeffidx, coeff: 0, 205, 0.000000 
atom, coeffidx, coeff: 0, 206, 0.000000 
atom, coeffidx, coeff: 0, 207, 0.000000 
atom, coeffidx, coeff: 0, 208, 0.000000 
atom, coeffidx, coeff: 0, 209, 0.000000 
atom, coeffidx, coeff: 0, 210, 0.000000 
atom, coeffidx, coeff: 0, 211, 0.000000 
atom, coeffidx, coeff: 0, 212, 0.000000 
atom, coeffidx, coeff: 0, 213, 0.000000 
atom, coeffidx, coeff: 0, 214, 0.000000 
atom, coeffidx, coeff: 0, 215, 0.000000 
atom, coeffidx, coeff: 0, 216, 0.000000 
atom, coeffidx, coeff: 0, 217, 0.000000 
atom, coeffidx, coeff: 0, 218, 0.000000 
atom, coeffidx, coeff: 0, 219, 0.000000 
atom, coeffidx, coeff: 0, 220, 0.000000 
atom, coeffidx, coeff: 0, 221, 0.000000 
atom, coeffidx, coeff: 0, 222, 0.000000 
atom, coeffidx, coeff: 0, 223, 0.000000 
atom, coeffidx, coeff: 0, 224, 0.000000 
atom, coeffidx, coeff: 0, 225, 0.000000 
atom, coeffidx, coeff: 0, 226, 0.000000 
atom, coeffidx, coeff: 0, 227, 0.000000 
atom, coeffidx, coeff: 0, 228, 0.000000 
atom, coeffidx, coeff: 0, 229, 0.000000 
atom, coeffidx, coeff: 0, 230, 0.000000 
atom, coeffidx, coeff: 0, 231, 0.000000 
atom, coeffidx, coeff: 0, 232, 0.000000 
atom, coeffidx, coeff: 0, 233, 0.000000 
atom, coeffidx, coeff: 0, 234, 0.000000 
atom, coeffidx, coeff: 0, 235, 0.000000 
atom, coeffidx, coeff: 0, 236, 0.000000 
atom, coeffidx, coeff: 0, 237, 0.000000 
atom, coeffidx, coeff: 0, 238, 0.000000 
atom, coeffidx, coeff: 0, 239, 0.000000 
atom, coeffidx, coeff: 0, 240, 0.000000 
atom, coeffidx, coeff: 0, 241, 0.000000 
atom, coeffidx, coeff: 0, 242, 0.000000 
atom, coeffidx, coeff: 0, 243, 0.000000 
atom, coeffidx, coeff: 0, 244, 0.000000 
atom, coeffidx, coeff: 0, 245, 0.000000 
atom, coeffidx, coeff: 0, 246, 0.000000 
atom, coeffidx, coeff: 0, 247, 0.000000 
atom, coeffidx, coeff: 0, 248, 0.000000 
atom, coeffidx, coeff: 0, 249, 0.000000 
atom, coeffidx, coeff: 0, 250, 0.000000 
atom, coeffidx, coeff: 0, 251, 0.000000 
atom, coeffidx, coeff: 0, 252, 0.000000 
atom, coeffidx, coeff: 0, 253, 0.000000 
atom, coeffidx, coeff: 0, 254, 0.000000 
atom, coeffidx, coeff: 0, 255, 0.000000 
atom, coeffidx, coeff: 0, 256, 0.000000 
atom, coeffidx, coeff: 0, 257, 0.000000 
atom, coeffidx, coeff: 0, 258, 0.000000 
atom, coeffidx, coeff: 0, 259, 0.000000 
atom, coeffidx, coeff: 0, 260, 0.000000 
atom, coeffidx, coeff: 0, 261, 0.000000 
atom, coeffidx, coeff: 0, 262, 0.000000 
atom, coeffidx, coeff: 0, 263, 0.000000 
atom, coeffidx, coeff: 0, 264, 0.000000 
atom, coeffidx, coeff: 0, 265, 0.000000 
atom, coeffidx, coeff: 0, 266, 0.000000 
atom, coeffidx, coeff: 0, 267, 0.000000 
atom, coeffidx, coeff: 0, 268, 0.000000 
atom, coeffidx, coeff: 0, 269, 0.000000 
atom, coeffidx, coeff: 0, 270, 0.000000 
atom, coeffidx, coeff: 0, 271, 0.000000 
atom, coeffidx, coeff: 0, 272, 0.000000 
atom, coeffidx, coeff: 0, 273, 0.000000 
atom, coeffidx, coeff: 0, 274, 0.000000 
atom, coeffidx, coeff: 0, 275, 0.000000 
atom, coeffidx, coeff: 0, 276, 0.000000 
atom, coeffidx, coeff: 0, 277, 0.000000 
atom, coeffidx, coeff: 0, 278, 0.000000 
atom, coeffidx, coeff: 0, 279, 0.000000 
atom, coeffidx, coeff: 0, 280, 0.000000 
atom, coeffidx, coeff: 0, 281, 0.000000 
atom, coeffidx, coeff: 0, 282, 0.000000 
atom, coeffidx, coeff: 0, 283, 0.000000 
atom, coeffidx, coeff: 0, 284, 0.000000 
atom, coeffidx, coeff: 0, 285, 0.000000 
atom, coeffidx, coeff: 0, 286, 0.000000 
atom, coeffidx, coeff: 0, 287, 0.000000 
atom, coeffidx, coeff: 0, 288, 0.000000 
atom, coeffidx, coeff: 0, 289, 0.000000 
atom, coeffidx, coeff: 0, 290, 0.000000 
atom, coeffidx, coeff: 0, 291, 0.000000 
atom, coeffidx, coeff: 0, 292, 0.000000 
atom, coeffidx, coeff: 0, 293, 0.000000 
atom, coeffidx, coeff: 0, 294, 0.000000 
atom, coeffidx, coeff: 0, 295, 0.000000 
atom, coeffidx, coeff: 0, 296, 0.000000 
atom, coeffidx, coeff: 0, 297, 0.000000 
atom, coeffidx, coeff: 0, 298, 0.000000 
atom, coeffidx, coeff: 0, 299, 0.000000 
atom, coeffidx, coeff: 0, 300, 0.000000 
atom, coeffidx, coeff: 0, 301, 0.000000 
atom, coeffidx, coeff: 0, 302, 0.000000 
atom, coeffidx, coeff: 0, 303, 0.000000 
atom, coeffidx, coeff: 0, 304, 0.000000 
atom, coeffidx, coeff: 0, 305, 0.000000 
atom, coeffidx, coeff: 0, 306, 0.000000 
atom, coeffidx, coeff: 0, 307, 0.000000 
atom, coeffidx, coeff: 0, 308, 0.000000 
atom, coeffidx, coeff: 0, 309, 0.000000 
atom, coeffidx, coeff: 0, 310, 0.000000 
atom, coeffidx, coeff: 0, 311, 0.000000 
atom, coeffidx, coeff: 0, 312, 0.000000 
atom, coeffidx, coeff: 0, 313, 0.000000 
atom, coeffidx, coeff: 0, 314, 0.000000 
atom, coeffidx, coeff: 0, 315, 0.000000 
atom, coeffidx, coeff: 0, 316, 0.000000 
atom, coeffidx, coeff: 0, 317, 0.000000 
atom, coeffidx, coeff: 0, 318, 0.000000 
atom, coeffidx, coeff: 0, 319, 0.000000 
atom, coeffidx, coeff: 0, 320, 0.000000 
atom, coeffidx, coeff: 0, 321, 0.000000 
atom, coeffidx, coeff: 0, 322, 0.000000 
atom, coeffidx, coeff: 0, 323, 0.000000 
atom, coeffidx, coeff: 0, 324, 0.000000 
atom, coeffidx, coeff: 0, 325, 0.000000 
atom, coeffidx, coeff: 0, 326, 0.000000 
atom, coeffidx, coeff: 0, 327, 0.000000 
atom, coeffidx, coeff: 0, 328, 0.000000 
atom, coeffidx, coeff: 0, 329, 0.000000 
atom, coeffidx, coeff: 0, 330, 0.000000 
atom, coeffidx, coeff: 0, 331, 0.000000 
atom, coeffidx, coeff: 0, 332, 0.000000 
atom, coeffidx, coeff: 0, 333, 0.000000 
atom, coeffidx, coeff: 0, 334, 0.000000 
atom, coeffidx, coeff: 0, 335, 0.000000 
atom, coeffidx, coeff: 0, 336, 0.000000 
atom, coeffidx, coeff: 0, 337, 0.000000 
atom, coeffidx, coeff: 0, 338, 0.000000 
atom, coeffidx, coeff: 0, 339, 0.000000 
atom, coeffidx, coeff: 0, 340, 0.000000 
atom, coeffidx, coeff: 0, 341, 0.000000 
atom, coeffidx, coeff: 0, 342, 0.000000 
atom, coeffidx, coeff: 0, 343, 0.000000 
atom, coeffidx, coeff: 0, 344, 0.000000 
atom, coeffidx, coeff: 0, 345, 0.000000 
atom, coeffidx, coeff: 0, 346, 0.000000 
atom, coeffidx, coeff: 0, 347, 0.000000 
atom, coeffidx, coeff: 0, 348, 0.000000 
atom, coeffidx, coeff: 0, 349, 0.000000 
atom, coeffidx, coeff: 0, 350, 0.000000 
atom, coeffidx, coeff: 0, 351, 0.000000 
atom, coeffidx, coeff: 0, 352, 0.000000 
atom, coeffidx, coeff: 0, 353, 0.000000 
atom, coeffidx, coeff: 0, 354, 0.000000 
atom, coeffidx, coeff: 0, 355, 0.000000 
atom, coeffidx, coeff: 0, 356, 0.000000 
atom, coeffidx, coeff: 0, 357, 0.000000 
atom, coeffidx, coeff: 0, 358, 0.000000 
atom, coeffidx, coeff: 0, 359, 0.000000 
atom, coeffidx, coeff: 0, 360, 0.000000 
atom, coeffidx, coeff: 0, 361, 0.000000 
atom, coeffidx, coeff: 0, 362, 0.000000 
atom, coeffidx, coeff: 0, 363, 0.000000 
atom, coeffidx, coeff: 0, 364, 0.000000 
atom, coeffidx, coeff: 0, 365, 0.000000 
atom, coeffidx, coeff: 0, 366, 0.000000 
atom, coeffidx, coeff: 0, 367, 0.000000 
atom, coeffidx, coeff: 0, 368, 0.000000 
atom, coeffidx, coeff: 0, 369, 0.000000 
atom, coeffidx, coeff: 0, 370, 0.000000 
atom, coeffidx, coeff: 0, 371, 0.000000 
atom, coeffidx, coeff: 0, 372, -0.000000 
atom, coeffidx, coeff: 0, 373, 0.000000 
atom, coeffidx, coeff: 0, 374, 0.000000 
atom, coeffidx, coeff: 0, 375, 0.000000 
atom, coeffidx, coeff: 0, 376, 0.000000 
atom, coeffidx, coeff: 0, 377, 0.000000 
atom, coeffidx, coeff: 0, 378, 0.000000 
atom, coeffidx, coeff: 0, 379, 0.000000 
atom, coeffidx, coeff: 0, 380, 0.000000 
atom, coeffidx, coeff: 0, 381, 0.000000 
atom, coeffidx, coeff: 0, 382, 0.000000 
atom, coeffidx, coeff: 0, 383, 0.000000 
atom, coeffidx, coeff: 0, 384, 0.000000 
atom, coeffidx, coeff: 0, 385, 0.000000 
atom, coeffidx, coeff: 0, 386, 0.000000 
atom, coeffidx, coeff: 0, 387, 0.000000 
atom, coeffidx, coeff: 0, 388, 0.000000 
atom, coeffidx, coeff: 0, 389, 0.000000 
atom, coeffidx, coeff: 0, 390, 0.000000 
atom, coeffidx, coeff: 0, 391, 0.000000 
atom, coeffidx, coeff: 0, 392, 0.000000 
atom, coeffidx, coeff: 0, 393, 0.000000 
atom, coeffidx, coeff: 0, 394, 0.000000 
atom, coeffidx, coeff: 0, 395, 0.000000 
atom, coeffidx, coeff: 0, 396, 0.000000 
atom, coeffidx, coeff: 0, 397, 0.000000 
atom, coeffidx, coeff: 0, 398, 0.000000 
atom, coeffidx, coeff: 0, 399, 0.000000 
atom, coeffidx, coeff: 0, 400, 0.000000 
atom, coeffidx, coeff: 0, 401, 0.000000 
atom, coeffidx, coeff: 0, 402, 0.000000 
atom, coeffidx, coeff: 0, 403, 0.000000 
atom, coeffidx, coeff: 0, 404, 0.000000 
atom, coeffidx, coeff: 0, 405, 0.000000 
atom, coeffidx, coeff: 0, 406, 0.000000 
atom, coeffidx, coeff: 0, 407, 0.000000 
atom, coeffidx, coeff: 0, 408, 0.000000 
atom, coeffidx, coeff: 0, 409, 0.000000 
atom, coeffidx, coeff: 0, 410, 0.000000 
atom, coeffidx, coeff: 0, 411, 0.000000 
atom, coeffidx, coeff: 0, 412, 0.000000 
atom, coeffidx, coeff: 0, 413, 0.000000 
atom, coeffidx, coeff: 0, 414, 0.000000 
atom, coeffidx, coeff: 0, 415, 0.000000 
atom, coeffidx, coeff: 0, 416, 0.000000 
atom, coeffidx, coeff: 0, 417, 0.000000 
atom, coeffidx, coeff: 0, 418, 0.000000 
atom, coeffidx, coeff: 0, 419, 0.000000 
atom, coeffidx, coeff: 0, 420, 0.000000 
atom, coeffidx, coeff: 0, 421, 0.000000 
atom, coeffidx, coeff: 0, 422, 0.000000 
atom, coeffidx, coeff: 0, 423, 0.000000 
atom, coeffidx, coeff: 0, 424, 0.000000 
atom, coeffidx, coeff: 0, 425, 0.000000 
atom, coeffidx, coeff: 0, 426, 0.000000 
atom, coeffidx, coeff: 0, 427, 0.000000 
atom, coeffidx, coeff: 0, 428, 0.000000 
atom, coeffidx, coeff: 0, 429, 0.000000 
atom, coeffidx, coeff: 0, 430, 0.000000 
atom, coeffidx, coeff: 0, 431, 0.000000 
atom, coeffidx, coeff: 0, 432, 0.000000 
atom, coeffidx, coeff: 0, 433, 0.000000 
atom, coeffidx, coeff: 0, 434, 0.000000 
atom, coeffidx, coeff: 0, 435, 0.000000 
atom, coeffidx, coeff: 0, 436, 0.000000 
atom, coeffidx, coeff: 0, 437, 0.000000 
atom, coeffidx, coeff: 0, 438, 0.000000 
atom, coeffidx, coeff: 0, 439, 0.000000 
atom, coeffidx, coeff: 0, 440, 0.000000 
atom, coeffidx, coeff: 0, 441, 0.000000 
atom, coeffidx, coeff: 0, 442, 0.000000 
atom, coeffidx, coeff: 0, 443, 0.000000 
atom, coeffidx, coeff: 0, 444, 0.000000 
atom, coeffidx, coeff: 0, 445, 0.000000 
atom, coeffidx, coeff: 0, 446, 0.000000 
atom, coeffidx, coeff: 0, 447, 0.000000 
atom, coeffidx, coeff: 0, 448, 0.000000 
atom, coeffidx, coeff: 0, 449, 0.000000 
atom, coeffidx, coeff: 0, 450, 0.000000 
atom, coeffidx, coeff: 0, 451, 0.000000 
atom, coeffidx, coeff: 0, 452, 0.000000 
atom, coeffidx, coeff: 0, 453, 0.000000 
atom, coeffidx, coeff: 0, 454, 0.000000 
atom, coeffidx, coeff: 0, 455, 0.000000 
atom, coeffidx, coeff: 0, 456, 0.000000 
atom, coeffidx, coeff: 0, 457, 0.000000 
atom, coeffidx, coeff: 0, 458, 0.000000 
atom, coeffidx, coeff: 0, 459, 0.000000 
atom, coeffidx, coeff: 0, 460, 0.000000 
atom, coeffidx, coeff: 0, 461, 0.000000 
atom, coeffidx, coeff: 0, 462, 0.000000 
atom, coeffidx, coeff: 0, 463, 0.000000 
atom, coeffidx, coeff: 0, 464, 0.000000 
atom, coeffidx, coeff: 0, 465, 0.000000 
atom, coeffidx, coeff: 0, 466, 0.000000 
atom, coeffidx, coeff: 0, 467, 0.000000 
atom, coeffidx, coeff: 0, 468, 0.000000 
atom, coeffidx, coeff: 0, 469, 0.000000 
atom, coeffidx, coeff: 0, 470, 0.000000 
atom, coeffidx, coeff: 0, 471, 0.000000 
atom, coeffidx, coeff: 0, 472, 0.000000 
atom, coeffidx, coeff: 0, 473, 0.000000 
atom, coeffidx, coeff: 0, 474, 0.000000 
atom, coeffidx, coeff: 0, 475, 0.000000 
atom, coeffidx, coeff: 0, 476, 0.000000 
atom, coeffidx, coeff: 0, 477, 0.000000 
atom, coeffidx, coeff: 0, 478, 0.000000 
atom, coeffidx, coeff: 0, 479, 0.000000 
atom, coeffidx, coeff: 0, 480, 0.000000 
atom, coeffidx, coeff: 0, 481, 0.000000 
atom, coeffidx, coeff: 0, 482, 0.000000 
atom, coeffidx, coeff: 0, 483, 0.000000 
atom, coeffidx, coeff: 0, 484, 0.000000 
atom, coeffidx, coeff: 0, 485, 0.000000 
atom, coeffidx, coeff: 0, 486, 0.000000 
atom, coeffidx, coeff: 0, 487, 0.000000 
atom, coeffidx, coeff: 0, 488, 0.000000 
atom, coeffidx, coeff: 0, 489, 0.000000 
atom, coeffidx, coeff: 0, 490, 0.000000 
atom, coeffidx, coeff: 0, 491, 0.000000 
atom, coeffidx, coeff: 0, 492, 0.000000 
atom, coeffidx, coeff: 0, 493, 0.000000 
atom, coeffidx, coeff: 0, 494, 0.000000 
atom, coeffidx, coeff: 0, 495, 0.000000 
atom, coeffidx, coeff: 0, 496, 0.000000 
atom, coeffidx, coeff: 0, 497, 0.000000 
atom, coeffidx, coeff: 0, 498, 0.000000 
atom, coeffidx, coeff: 0, 499, 0.000000 
atom, coeffidx, coeff: 0, 500, 0.000000 
atom, coeffidx, coeff: 0, 501, 0.000000 
atom, coeffidx, coeff: 0, 502, 0.000000 
atom, coeffidx, coeff: 0, 503, 0.000000 
beginning of en basis loop
function index: 0 
function index: 1 
function index: 2 
function index: 3 
function index: 4 
function index: 5 
atom, coeffidx, coeff: 1, 0, 0.000000 
atom, coeffidx, coeff: 1, 1, 0.000000 
atom, coeffidx, coeff: 1, 2, 14.255807 
atom, coeffidx, coeff: 1, 3, 0.000000 
atom, coeffidx, coeff: 1, 4, 0.000000 
atom, coeffidx, coeff: 1, 5, 14.255807 
atom, coeffidx, coeff: 1, 6, 0.000000 
atom, coeffidx, coeff: 1, 7, 0.000000 
atom, coeffidx, coeff: 1, 8, 0.000000 
atom, coeffidx, coeff: 1, 9, 0.000000 
atom, coeffidx, coeff: 1, 10, 0.000000 
atom, coeffidx, coeff: 1, 11, 0.000000 
atom, coeffidx, coeff: 1, 12, 0.000000 
atom, coeffidx, coeff: 1, 13, 0.000000 
atom, coeffidx, coeff: 1, 14, 0.000000 
atom, coeffidx, coeff: 1, 15, 0.000000 
atom, coeffidx, coeff: 1, 16, 0.000000 
atom, coeffidx, coeff: 1, 17, 0.000000 
atom, coeffidx, coeff: 1, 18, 0.000000 
atom, coeffidx, coeff: 1, 19, 0.000000 
atom, coeffidx, coeff: 1, 20, 0.000000 
atom, coeffidx, coeff: 1, 21, 0.000000 
atom, coeffidx, coeff: 1, 22, 0.000000 
atom, coeffidx, coeff: 1, 23, 0.000000 
atom, coeffidx, coeff: 1, 24, 0.000000 
atom, coeffidx, coeff: 1, 25, 0.000000 
atom, coeffidx, coeff: 1, 26, 0.000000 
atom, coeffidx, coeff: 1, 27, 0.000000 
atom, coeffidx, coeff: 1, 28, 0.000000 
atom, coeffidx, coeff: 1, 29, 0.000000 
atom, coeffidx, coeff: 1, 30, 0.000000 
atom, coeffidx, coeff: 1, 31, 0.000000 
atom, coeffidx, coeff: 1, 32, 0.000000 
atom, coeffidx, coeff: 1, 33, 0.000000 
atom, coeffidx, coeff: 1, 34, 0.000000 
atom, coeffidx, coeff: 1, 35, 0.000000 
atom, coeffidx, coeff: 1, 36, 0.000000 
atom, coeffidx, coeff: 1, 37, 0.000000 
atom, coeffidx, coeff: 1, 38, 0.000000 
atom, coeffidx, coeff: 1, 39, 0.000000 
atom, coeffidx, coeff: 1, 40, 0.000000 
atom, coeffidx, coeff: 1, 41, 0.000000 
atom, coeffidx, coeff: 1, 42, 0.000000 
atom, coeffidx, coeff: 1, 43, 0.000000 
atom, coeffidx, coeff: 1, 44, 0.000000 
atom, coeffidx, coeff: 1, 45, 0.000000 
atom, coeffidx, coeff: 1, 46, 0.000000 
atom, coeffidx, coeff: 1, 47, 0.000000 
atom, coeffidx, coeff: 1, 48, 0.000000 
atom, coeffidx, coeff: 1, 49, 0.000000 
atom, coeffidx, coeff: 1, 50, 0.000000 
atom, coeffidx, coeff: 1, 51, 0.000000 
atom, coeffidx, coeff: 1, 52, 0.000000 
atom, coeffidx, coeff: 1, 53, 0.000000 
atom, coeffidx, coeff: 1, 54, 0.000000 
atom, coeffidx, coeff: 1, 55, 0.000000 
atom, coeffidx, coeff: 1, 56, 0.000000 
atom, coeffidx, coeff: 1, 57, 0.000000 
atom, coeffidx, coeff: 1, 58, 0.000000 
atom, coeffidx, coeff: 1, 59, 0.000000 
atom, coeffidx, coeff: 1, 60, 0.000000 
atom, coeffidx, coeff: 1, 61, 0.000000 
atom, coeffidx, coeff: 1, 62, 0.000000 
atom, coeffidx, coeff: 1, 63, 0.000000 
atom, coeffidx, coeff: 1, 64, 0.000000 
atom, coeffidx, coeff: 1, 65, 0.000000 
atom, coeffidx, coeff: 1, 66, 0.000000 
atom, coeffidx, coeff: 1, 67, 0.000000 
atom, coeffidx, coeff: 1, 68, 0.000000 
atom, coeffidx, coeff: 1, 69, 0.000000 
atom, coeffidx, coeff: 1, 70, 0.000000 
atom, coeffidx, coeff: 1, 71, 0.000000 
atom, coeffidx, coeff: 1, 72, 0.000000 
atom, coeffidx, coeff: 1, 73, 0.000000 
atom, coeffidx, coeff: 1, 74, 0.000000 
atom, coeffidx, coeff: 1, 75, 0.000000 
atom, coeffidx, coeff: 1, 76, 0.000000 
atom, coeffidx, coeff: 1, 77, 0.000000 
atom, coeffidx, coeff: 1, 78, 203.228042 
atom, coeffidx, coeff: 1, 79, 1.890034 
atom, coeffidx, coeff: 1, 80, 47.278431 
atom, coeffidx, coeff: 1, 81, 25.988952 
atom, coeffidx, coeff: 1, 82, 0.615711 
atom, coeffidx, coeff: 1, 83, 11.947196 
atom, coeffidx, coeff: 1, 84, 3.323486 
atom, coeffidx, coeff: 1, 85, 0.204368 
atom, coeffidx, coeff: 1, 86, 3.023363 
atom, coeffidx, coeff: 1, 87, 0.000000 
atom, coeffidx, coeff: 1, 88, 0.000000 
atom, coeffidx, coeff: 1, 89, 0.000000 
atom, coeffidx, coeff: 1, 90, 0.000000 
atom, coeffidx, coeff: 1, 91, 0.000000 
atom, coeffidx, coeff: 1, 92, 0.000000 
atom, coeffidx, coeff: 1, 93, 0.000000 
atom, coeffidx, coeff: 1, 94, 0.000000 
atom, coeffidx, coeff: 1, 95, 0.000000 
atom, coeffidx, coeff: 1, 96, 0.000000 
atom, coeffidx, coeff: 1, 97, 0.000000 
atom, coeffidx, coeff: 1, 98, 0.000000 
atom, coeffidx, coeff: 1, 99, 0.000000 
atom, coeffidx, coeff: 1, 100, 0.000000 
atom, coeffidx, coeff: 1, 101, 0.000000 
atom, coeffidx, coeff: 1, 102, 0.000000 
atom, coeffidx, coeff: 1, 103, 0.000000 
atom, coeffidx, coeff: 1, 104, 0.000000 
atom, coeffidx, coeff: 1, 105, 0.000000 
atom, coeffidx, coeff: 1, 106, 0.000000 
atom, coeffidx, coeff: 1, 107, 0.000000 
atom, coeffidx, coeff: 1, 108, 0.000000 
atom, coeffidx, coeff: 1, 109, 0.000000 
atom, coeffidx, coeff: 1, 110, 0.000000 
atom, coeffidx, coeff: 1, 111, 0.000000 
atom, coeffidx, coeff: 1, 112, 0.000000 
atom, coeffidx, coeff: 1, 113, 0.000000 
atom, coeffidx, coeff: 1, 114, 0.000000 
atom, coeffidx, coeff: 1, 115, 0.000000 
atom, coeffidx, coeff: 1, 116, 0.000000 
atom, coeffidx, coeff: 1, 117, 0.000000 
atom, coeffidx, coeff: 1, 118, 0.000000 
atom, coeffidx, coeff: 1, 119, 0.000000 
atom, coeffidx, coeff: 1, 120, 0.000000 
atom, coeffidx, coeff: 1, 121, 0.000000 
atom, coeffidx, coeff: 1, 122, 0.000000 
atom, coeffidx, coeff: 1, 123, 0.000000 
atom, coeffidx, coeff: 1, 124, 0.000000 
atom, coeffidx, coeff: 1, 125, 0.000000 
atom, coeffidx, coeff: 1, 126, 0.000000 
atom, coeffidx, coeff: 1, 127, 0.000000 
atom, coeffidx, coeff: 1, 128, 0.000000 
atom, coeffidx, coeff: 1, 129, 0.000000 
atom, coeffidx, coeff: 1, 130, 0.000000 
atom, coeffidx, coeff: 1, 131, 0.000000 
atom, coeffidx, coeff: 1, 132, 0.000000 
atom, coeffidx, coeff: 1, 133, 0.000000 
atom, coeffidx, coeff: 1, 134, 0.000000 
atom, coeffidx, coeff: 1, 135, 0.000000 
atom, coeffidx, coeff: 1, 136, 0.000000 
atom, coeffidx, coeff: 1, 137, 0.000000 
atom, coeffidx, coeff: 1, 138, 0.000000 
atom, coeffidx, coeff: 1, 139, 0.000000 
atom, coeffidx, coeff: 1, 140, 0.000000 
atom, coeffidx, coeff: 1, 141, 0.000000 
atom, coeffidx, coeff: 1, 142, 0.000000 
atom, coeffidx, coeff: 1, 143, 0.000000 
atom, coeffidx, coeff: 1, 144, 0.000000 
atom, coeffidx, coeff: 1, 145, 0.000000 
atom, coeffidx, coeff: 1, 146, 0.000000 
atom, coeffidx, coeff: 1, 147, 0.000000 
atom, coeffidx, coeff: 1, 148, 0.000000 
atom, coeffidx, coeff: 1, 149, 0.000000 
atom, coeffidx, coeff: 1, 150, 0.000000 
atom, coeffidx, coeff: 1, 151, 0.000000 
atom, coeffidx, coeff: 1, 152, 0.000000 
atom, coeffidx, coeff: 1, 153, 0.000000 
atom, coeffidx, coeff: 1, 154, 0.000000 
atom, coeffidx, coeff: 1, 155, 0.000000 
atom, coeffidx, coeff: 1, 156, 0.000000 
atom, coeffidx, coeff: 1, 157, 0.000000 
atom, coeffidx, coeff: 1, 158, 0.000000 
atom, coeffidx, coeff: 1, 159, 203.228042 
atom, coeffidx, coeff: 1, 160, 1.890034 
atom, coeffidx, coeff: 1, 161, 47.278431 
atom, coeffidx, coeff: 1, 162, 25.988952 
atom, coeffidx, coeff: 1, 163, 0.615711 
atom, coeffidx, coeff: 1, 164, 11.947196 
atom, coeffidx, coeff: 1, 165, 3.323486 
atom, coeffidx, coeff: 1, 166, 0.204368 
atom, coeffidx, coeff: 1, 167, 3.023363 
atom, coeffidx, coeff: 1, 168, 0.000000 
atom, coeffidx, coeff: 1, 169, 0.000000 
atom, coeffidx, coeff: 1, 170, 0.000000 
atom, coeffidx, coeff: 1, 171, 0.000000 
atom, coeffidx, coeff: 1, 172, 0.000000 
atom, coeffidx, coeff: 1, 173, 0.000000 
atom, coeffidx, coeff: 1, 174, 768131885900308709163589197587773655726646631228870914299266366527569781150412345148457726684344057314631652335973127086277142915967440912384.000000 
atom, coeffidx, coeff: 1, 175, 0.000000 
atom, coeffidx, coeff: 1, 176, 0.000000 
atom, coeffidx, coeff: 1, 177, 0.000000 
atom, coeffidx, coeff: 1, 178, 0.000000 
atom, coeffidx, coeff: 1, 179, 0.000000 
atom, coeffidx, coeff: 1, 180, 0.000000 
atom, coeffidx, coeff: 1, 181, 0.000000 
atom, coeffidx, coeff: 1, 182, 0.000000 
atom, coeffidx, coeff: 1, 183, 0.000000 
atom, coeffidx, coeff: 1, 184, 0.000000 
atom, coeffidx, coeff: 1, 185, 0.000000 
atom, coeffidx, coeff: 1, 186, 0.000000 
atom, coeffidx, coeff: 1, 187, 0.000000 
atom, coeffidx, coeff: 1, 188, 0.000000 
atom, coeffidx, coeff: 1, 189, 0.000000 
atom, coeffidx, coeff: 1, 190, 0.000000 
atom, coeffidx, coeff: 1, 191, 0.000000 
atom, coeffidx, coeff: 1, 192, 0.000000 
atom, coeffidx, coeff: 1, 193, 13560422102480787298481429067340956997952061020834964059894860068979716861769624561921528604523258739066827003040295600664814085169915278537154808259819643939409887232.000000 
atom, coeffidx, coeff: 1, 194, 0.000000 
atom, coeffidx, coeff: 1, 195, 0.000000 
atom, coeffidx, coeff: 1, 196, 89991526910876127548284106677843456539274349597277255964239466573343686116314846570913117864936057003958100366306008398232178130944.000000 
atom, coeffidx, coeff: 1, 197, 0.000000 
atom, coeffidx, coeff: 1, 198, 0.000000 
atom, coeffidx, coeff: 1, 199, 0.000000 
atom, coeffidx, coeff: 1, 200, 0.000000 
atom, coeffidx, coeff: 1, 201, 0.000000 
atom, coeffidx, coeff: 1, 202, 0.000000 
atom, coeffidx, coeff: 1, 203, 0.000000 
atom, coeffidx, coeff: 1, 204, 0.000000 
atom, coeffidx, coeff: 1, 205, 0.000000 
atom, coeffidx, coeff: 1, 206, 0.000000 
atom, coeffidx, coeff: 1, 207, 0.000000 
atom, coeffidx, coeff: 1, 208, 0.000000 
atom, coeffidx, coeff: 1, 209, 0.000000 
atom, coeffidx, coeff: 1, 210, 0.000000 
atom, coeffidx, coeff: 1, 211, 0.000000 
atom, coeffidx, coeff: 1, 212, 0.000000 
atom, coeffidx, coeff: 1, 213, 0.000000 
atom, coeffidx, coeff: 1, 214, 0.000000 
atom, coeffidx, coeff: 1, 215, 0.000000 
atom, coeffidx, coeff: 1, 216, 0.000000 
atom, coeffidx, coeff: 1, 217, 0.000000 
atom, coeffidx, coeff: 1, 218, 0.000000 
atom, coeffidx, coeff: 1, 219, 0.000000 
atom, coeffidx, coeff: 1, 220, 0.000000 
atom, coeffidx, coeff: 1, 221, 0.000000 
atom, coeffidx, coeff: 1, 222, 0.000000 
atom, coeffidx, coeff: 1, 223, 0.000000 
atom, coeffidx, coeff: 1, 224, 0.000000 
atom, coeffidx, coeff: 1, 225, 0.000000 
atom, coeffidx, coeff: 1, 226, 0.000000 
atom, coeffidx, coeff: 1, 227, 0.000000 
atom, coeffidx, coeff: 1, 228, 0.000000 
atom, coeffidx, coeff: 1, 229, 0.000000 
atom, coeffidx, coeff: 1, 230, 0.000000 
atom, coeffidx, coeff: 1, 231, 0.000000 
atom, coeffidx, coeff: 1, 232, 0.000000 
atom, coeffidx, coeff: 1, 233, 0.000000 
atom, coeffidx, coeff: 1, 234, 0.000000 
atom, coeffidx, coeff: 1, 235, 0.000000 
atom, coeffidx, coeff: 1, 236, 0.000000 
atom, coeffidx, coeff: 1, 237, 0.000000 
atom, coeffidx, coeff: 1, 238, 0.000000 
atom, coeffidx, coeff: 1, 239, 0.000000 
atom, coeffidx, coeff: 1, 240, 0.000000 
atom, coeffidx, coeff: 1, 241, 0.000000 
atom, coeffidx, coeff: 1, 242, 0.000000 
atom, coeffidx, coeff: 1, 243, 0.000000 
atom, coeffidx, coeff: 1, 244, 0.000000 
atom, coeffidx, coeff: 1, 245, 0.000000 
atom, coeffidx, coeff: 1, 246, 0.000000 
atom, coeffidx, coeff: 1, 247, 0.000000 
atom, coeffidx, coeff: 1, 248, 0.000000 
atom, coeffidx, coeff: 1, 249, 0.000000 
atom, coeffidx, coeff: 1, 250, 0.000000 
atom, coeffidx, coeff: 1, 251, 0.000000 
atom, coeffidx, coeff: 1, 252, 0.000000 
atom, coeffidx, coeff: 1, 253, 0.000000 
atom, coeffidx, coeff: 1, 254, 0.000000 
atom, coeffidx, coeff: 1, 255, 0.000000 
atom, coeffidx, coeff: 1, 256, 0.000000 
atom, coeffidx, coeff: 1, 257, 0.000000 
atom, coeffidx, coeff: 1, 258, 0.000000 
atom, coeffidx, coeff: 1, 259, 0.000000 
atom, coeffidx, coeff: 1, 260, 0.000000 
atom, coeffidx, coeff: 1, 261, 0.000000 
atom, coeffidx, coeff: 1, 262, 0.000000 
atom, coeffidx, coeff: 1, 263, 0.000000 
atom, coeffidx, coeff: 1, 264, 0.000000 
atom, coeffidx, coeff: 1, 265, 0.000000 
atom, coeffidx, coeff: 1, 266, 0.000000 
atom, coeffidx, coeff: 1, 267, 0.000000 
atom, coeffidx, coeff: 1, 268, 0.000000 
atom, coeffidx, coeff: 1, 269, 0.000000 
atom, coeffidx, coeff: 1, 270, 0.000000 
atom, coeffidx, coeff: 1, 271, 0.000000 
atom, coeffidx, coeff: 1, 272, 0.000000 
atom, coeffidx, coeff: 1, 273, 0.000000 
atom, coeffidx, coeff: 1, 274, 0.000000 
atom, coeffidx, coeff: 1, 275, 0.000000 
atom, coeffidx, coeff: 1, 276, 0.000000 
atom, coeffidx, coeff: 1, 277, 0.000000 
atom, coeffidx, coeff: 1, 278, 0.000000 
atom, coeffidx, coeff: 1, 279, 0.000000 
atom, coeffidx, coeff: 1, 280, 0.000000 
atom, coeffidx, coeff: 1, 281, 0.000000 
atom, coeffidx, coeff: 1, 282, 0.000000 
atom, coeffidx, coeff: 1, 283, 0.000000 
atom, coeffidx, coeff: 1, 284, 0.000000 
atom, coeffidx, coeff: 1, 285, 0.000000 
atom, coeffidx, coeff: 1, 286, 0.000000 
atom, coeffidx, coeff: 1, 287, 0.000000 
atom, coeffidx, coeff: 1, 288, 0.000000 
atom, coeffidx, coeff: 1, 289, 0.000000 
atom, coeffidx, coeff: 1, 290, 0.000000 
atom, coeffidx, coeff: 1, 291, 0.000000 
atom, coeffidx, coeff: 1, 292, 0.000000 
atom, coeffidx, coeff: 1, 293, 0.000000 
atom, coeffidx, coeff: 1, 294, 0.000000 
atom, coeffidx, coeff: 1, 295, 0.000000 
atom, coeffidx, coeff: 1, 296, 0.000000 
atom, coeffidx, coeff: 1, 297, 0.000000 
atom, coeffidx, coeff: 1, 298, 0.000000 
atom, coeffidx, coeff: 1, 299, 0.000000 
atom, coeffidx, coeff: 1, 300, 0.000000 
atom, coeffidx, coeff: 1, 301, 0.000000 
atom, coeffidx, coeff: 1, 302, 0.000000 
atom, coeffidx, coeff: 1, 303, 0.000000 
atom, coeffidx, coeff: 1, 304, 0.000000 
atom, coeffidx, coeff: 1, 305, 0.000000 
atom, coeffidx, coeff: 1, 306, 0.000000 
atom, coeffidx, coeff: 1, 307, 0.000000 
atom, coeffidx, coeff: 1, 308, 0.000000 
atom, coeffidx, coeff: 1, 309, 0.000000 
atom, coeffidx, coeff: 1, 310, 0.000000 
atom, coeffidx, coeff: 1, 311, 0.000000 
atom, coeffidx, coeff: 1, 312, 0.000000 
atom, coeffidx, coeff: 1, 313, 0.000000 
atom, coeffidx, coeff: 1, 314, 0.000000 
atom, coeffidx, coeff: 1, 315, 0.000000 
atom, coeffidx, coeff: 1, 316, 0.000000 
atom, coeffidx, coeff: 1, 317, 0.000000 
atom, coeffidx, coeff: 1, 318, 0.000000 
atom, coeffidx, coeff: 1, 319, 0.000000 
atom, coeffidx, coeff: 1, 320, 0.000000 
atom, coeffidx, coeff: 1, 321, 0.000000 
atom, coeffidx, coeff: 1, 322, 0.000000 
atom, coeffidx, coeff: 1, 323, 0.000000 
atom, coeffidx, coeff: 1, 324, 0.000000 
atom, coeffidx, coeff: 1, 325, 0.000000 
atom, coeffidx, coeff: 1, 326, 0.000000 
atom, coeffidx, coeff: 1, 327, 0.000000 
atom, coeffidx, coeff: 1, 328, 0.000000 
atom, coeffidx, coeff: 1, 329, 0.000000 
atom, coeffidx, coeff: 1, 330, 0.000000 
atom, coeffidx, coeff: 1, 331, 0.000000 
atom, coeffidx, coeff: 1, 332, 0.000000 
atom, coeffidx, coeff: 1, 333, 0.000000 
atom, coeffidx, coeff: 1, 334, 0.000000 
atom, coeffidx, coeff: 1, 335, 0.000000 
atom, coeffidx, coeff: 1, 336, 0.000000 
atom, coeffidx, coeff: 1, 337, 0.000000 
atom, coeffidx, coeff: 1, 338, 0.000000 
atom, coeffidx, coeff: 1, 339, 0.000000 
atom, coeffidx, coeff: 1, 340, 0.000000 
atom, coeffidx, coeff: 1, 341, 0.000000 
atom, coeffidx, coeff: 1, 342, 0.000000 
atom, coeffidx, coeff: 1, 343, 0.000000 
atom, coeffidx, coeff: 1, 344, 0.000000 
atom, coeffidx, coeff: 1, 345, 0.000000 
atom, coeffidx, coeff: 1, 346, 0.000000 
atom, coeffidx, coeff: 1, 347, 0.000000 
atom, coeffidx, coeff: 1, 348, 0.000000 
atom, coeffidx, coeff: 1, 349, 0.000000 
atom, coeffidx, coeff: 1, 350, 0.000000 
atom, coeffidx, coeff: 1, 351, 0.000000 
atom, coeffidx, coeff: 1, 352, 0.000000 
atom, coeffidx, coeff: 1, 353, 0.000000 
atom, coeffidx, coeff: 1, 354, 0.000000 
atom, coeffidx, coeff: 1, 355, 0.000000 
atom, coeffidx, coeff: 1, 356, 0.000000 
atom, coeffidx, coeff: 1, 357, 0.000000 
atom, coeffidx, coeff: 1, 358, 0.000000 
atom, coeffidx, coeff: 1, 359, 0.000000 
atom, coeffidx, coeff: 1, 360, 0.000000 
atom, coeffidx, coeff: 1, 361, 0.000000 
atom, coeffidx, coeff: 1, 362, 0.000000 
atom, coeffidx, coeff: 1, 363, 0.000000 
atom, coeffidx, coeff: 1, 364, 0.000000 
atom, coeffidx, coeff: 1, 365, 0.000000 
atom, coeffidx, coeff: 1, 366, -0.000000 
atom, coeffidx, coeff: 1, 367, 0.000000 
atom, coeffidx, coeff: 1, 368, 0.000000 
atom, coeffidx, coeff: 1, 369, 0.000000 
atom, coeffidx, coeff: 1, 370, 0.000000 
atom, coeffidx, coeff: 1, 371, 0.000000 
atom, coeffidx, coeff: 1, 372, 0.000000 
atom, coeffidx, coeff: 1, 373, 0.000000 
atom, coeffidx, coeff: 1, 374, 0.000000 
atom, coeffidx, coeff: 1, 375, 0.000000 
atom, coeffidx, coeff: 1, 376, 0.000000 
atom, coeffidx, coeff: 1, 377, 0.000000 
atom, coeffidx, coeff: 1, 378, 0.000000 
atom, coeffidx, coeff: 1, 379, 0.000000 
atom, coeffidx, coeff: 1, 380, 0.000000 
atom, coeffidx, coeff: 1, 381, 0.000000 
atom, coeffidx, coeff: 1, 382, 0.000000 
atom, coeffidx, coeff: 1, 383, 0.000000 
atom, coeffidx, coeff: 1, 384, 0.000000 
atom, coeffidx, coeff: 1, 385, 0.000000 
atom, coeffidx, coeff: 1, 386, 0.000000 
atom, coeffidx, coeff: 1, 387, 0.000000 
atom, coeffidx, coeff: 1, 388, 0.000000 
atom, coeffidx, coeff: 1, 389, 0.000000 
atom, coeffidx, coeff: 1, 390, 0.000000 
atom, coeffidx, coeff: 1, 391, 0.000000 
atom, coeffidx, coeff: 1, 392, 0.000000 
atom, coeffidx, coeff: 1, 393, 0.000000 
atom, coeffidx, coeff: 1, 394, 0.000000 
atom, coeffidx, coeff: 1, 395, 0.000000 
atom, coeffidx, coeff: 1, 396, 0.000000 
atom, coeffidx, coeff: 1, 397, 0.000000 
atom, coeffidx, coeff: 1, 398, 0.000000 
atom, coeffidx, coeff: 1, 399, 0.000000 
atom, coeffidx, coeff: 1, 400, 0.000000 
atom, coeffidx, coeff: 1, 401, 0.000000 
atom, coeffidx, coeff: 1, 402, 0.000000 
atom, coeffidx, coeff: 1, 403, 0.000000 
atom, coeffidx, coeff: 1, 404, 0.000000 
atom, coeffidx, coeff: 1, 405, 0.000000 
atom, coeffidx, coeff: 1, 406, 0.000000 
atom, coeffidx, coeff: 1, 407, 0.000000 
atom, coeffidx, coeff: 1, 408, 0.000000 
atom, coeffidx, coeff: 1, 409, 0.000000 
atom, coeffidx, coeff: 1, 410, 0.000000 
atom, coeffidx, coeff: 1, 411, 0.000000 
atom, coeffidx, coeff: 1, 412, 0.000000 
atom, coeffidx, coeff: 1, 413, 0.000000 
atom, coeffidx, coeff: 1, 414, 0.000000 
atom, coeffidx, coeff: 1, 415, 0.000000 
atom, coeffidx, coeff: 1, 416, 0.000000 
atom, coeffidx, coeff: 1, 417, 0.000000 
atom, coeffidx, coeff: 1, 418, 0.000000 
atom, coeffidx, coeff: 1, 419, 0.000000 
atom, coeffidx, coeff: 1, 420, 0.000000 
atom, coeffidx, coeff: 1, 421, 0.000000 
atom, coeffidx, coeff: 1, 422, 0.000000 
atom, coeffidx, coeff: 1, 423, 0.000000 
atom, coeffidx, coeff: 1, 424, 0.000000 
atom, coeffidx, coeff: 1, 425, 0.000000 
atom, coeffidx, coeff: 1, 426, 0.000000 
atom, coeffidx, coeff: 1, 427, 0.000000 
atom, coeffidx, coeff: 1, 428, 0.000000 
atom, coeffidx, coeff: 1, 429, 0.000000 
atom, coeffidx, coeff: 1, 430, 0.000000 
atom, coeffidx, coeff: 1, 431, 0.000000 
atom, coeffidx, coeff: 1, 432, 0.000000 
atom, coeffidx, coeff: 1, 433, 0.000000 
atom, coeffidx, coeff: 1, 434, 0.000000 
atom, coeffidx, coeff: 1, 435, 0.000000 
atom, coeffidx, coeff: 1, 436, 0.000000 
atom, coeffidx, coeff: 1, 437, 0.000000 
atom, coeffidx, coeff: 1, 438, 0.000000 
atom, coeffidx, coeff: 1, 439, 0.000000 
atom, coeffidx, coeff: 1, 440, 0.000000 
atom, coeffidx, coeff: 1, 441, 0.000000 
atom, coeffidx, coeff: 1, 442, 0.000000 
atom, coeffidx, coeff: 1, 443, 0.000000 
atom, coeffidx, coeff: 1, 444, 0.000000 
atom, coeffidx, coeff: 1, 445, 0.000000 
atom, coeffidx, coeff: 1, 446, 0.000000 
atom, coeffidx, coeff: 1, 447, 0.000000 
atom, coeffidx, coeff: 1, 448, 0.000000 
atom, coeffidx, coeff: 1, 449, 0.000000 
atom, coeffidx, coeff: 1, 450, 0.000000 
atom, coeffidx, coeff: 1, 451, 0.000000 
atom, coeffidx, coeff: 1, 452, 0.000000 
atom, coeffidx, coeff: 1, 453, 0.000000 
atom, coeffidx, coeff: 1, 454, 0.000000 
atom, coeffidx, coeff: 1, 455, 0.000000 
atom, coeffidx, coeff: 1, 456, 0.000000 
atom, coeffidx, coeff: 1, 457, 0.000000 
atom, coeffidx, coeff: 1, 458, 0.000000 
atom, coeffidx, coeff: 1, 459, 0.000000 
atom, coeffidx, coeff: 1, 460, 0.000000 
atom, coeffidx, coeff: 1, 461, 0.000000 
atom, coeffidx, coeff: 1, 462, 0.000000 
atom, coeffidx, coeff: 1, 463, 0.000000 
atom, coeffidx, coeff: 1, 464, 0.000000 
atom, coeffidx, coeff: 1, 465, 0.000000 
atom, coeffidx, coeff: 1, 466, 0.000000 
atom, coeffidx, coeff: 1, 467, 0.000000 
atom, coeffidx, coeff: 1, 468, 0.000000 
atom, coeffidx, coeff: 1, 469, 0.000000 
atom, coeffidx, coeff: 1, 470, 0.000000 
atom, coeffidx, coeff: 1, 471, 0.000000 
atom, coeffidx, coeff: 1, 472, 0.000000 
atom, coeffidx, coeff: 1, 473, 0.000000 
atom, coeffidx, coeff: 1, 474, 0.000000 
atom, coeffidx, coeff: 1, 475, 0.000000 
atom, coeffidx, coeff: 1, 476, 0.000000 
atom, coeffidx, coeff: 1, 477, 0.000000 
atom, coeffidx, coeff: 1, 478, 0.000000 
atom, coeffidx, coeff: 1, 479, 0.000000 
atom, coeffidx, coeff: 1, 480, 0.000000 
atom, coeffidx, coeff: 1, 481, 0.000000 
atom, coeffidx, coeff: 1, 482, 0.000000 
atom, coeffidx, coeff: 1, 483, 0.000000 
atom, coeffidx, coeff: 1, 484, 0.000000 
atom, coeffidx, coeff: 1, 485, 0.000000 
atom, coeffidx, coeff: 1, 486, 0.000000 
atom, coeffidx, coeff: 1, 487, 0.000000 
atom, coeffidx, coeff: 1, 488, 0.000000 
atom, coeffidx, coeff: 1, 489, 0.000000 
atom, coeffidx, coeff: 1, 490, 0.000000 
atom, coeffidx, coeff: 1, 491, 0.000000 
atom, coeffidx, coeff: 1, 492, 0.000000 
atom, coeffidx, coeff: 1, 493, 0.000000 
atom, coeffidx, coeff: 1, 494, 0.000000 
atom, coeffidx, coeff: 1, 495, 0.000000 
atom, coeffidx, coeff: 1, 496, 0.000000 
atom, coeffidx, coeff: 1, 497, 0.000000 
atom, coeffidx, coeff: 1, 498, 0.000000 
atom, coeffidx, coeff: 1, 499, 0.000000 
atom, coeffidx, coeff: 1, 500, 0.000000 
atom, coeffidx, coeff: 1, 501, 0.000000 
atom, coeffidx, coeff: 1, 502, 0.000000 
atom, coeffidx, coeff: 1, 503, 0.000000 
beginning of en basis loop
function index: 0 
function index: 1 
function index: 2 
function index: 3 
function index: 4 
function index: 5 
atom, coeffidx, coeff: 2, 0, 0.000000 
atom, coeffidx, coeff: 2, 1, 0.000000 
atom, coeffidx, coeff: 2, 2, 14.366611 
atom, coeffidx, coeff: 2, 3, 0.000000 
atom, coeffidx, coeff: 2, 4, 0.000000 
atom, coeffidx, coeff: 2, 5, 14.366611 
atom, coeffidx, coeff: 2, 6, 0.000000 
atom, coeffidx, coeff: 2, 7, 0.000000 
atom, coeffidx, coeff: 2, 8, 0.000000 
atom, coeffidx, coeff: 2, 9, 0.000000 
atom, coeffidx, coeff: 2, 10, 0.000000 
atom, coeffidx, coeff: 2, 11, 0.000000 
atom, coeffidx, coeff: 2, 12, 0.000000 
atom, coeffidx, coeff: 2, 13, 0.000000 
atom, coeffidx, coeff: 2, 14, 0.000000 
atom, coeffidx, coeff: 2, 15, 0.000000 
atom, coeffidx, coeff: 2, 16, 0.000000 
atom, coeffidx, coeff: 2, 17, 0.000000 
atom, coeffidx, coeff: 2, 18, 0.000000 
atom, coeffidx, coeff: 2, 19, 0.000000 
atom, coeffidx, coeff: 2, 20, 0.000000 
atom, coeffidx, coeff: 2, 21, 0.000000 
atom, coeffidx, coeff: 2, 22, 0.000000 
atom, coeffidx, coeff: 2, 23, 0.000000 
atom, coeffidx, coeff: 2, 24, 0.000000 
atom, coeffidx, coeff: 2, 25, 0.000000 
atom, coeffidx, coeff: 2, 26, 0.000000 
atom, coeffidx, coeff: 2, 27, 0.000000 
atom, coeffidx, coeff: 2, 28, 0.000000 
atom, coeffidx, coeff: 2, 29, 0.000000 
atom, coeffidx, coeff: 2, 30, 0.000000 
atom, coeffidx, coeff: 2, 31, 0.000000 
atom, coeffidx, coeff: 2, 32, 0.000000 
atom, coeffidx, coeff: 2, 33, 0.000000 
atom, coeffidx, coeff: 2, 34, 0.000000 
atom, coeffidx, coeff: 2, 35, 0.000000 
atom, coeffidx, coeff: 2, 36, 0.000000 
atom, coeffidx, coeff: 2, 37, 0.000000 
atom, coeffidx, coeff: 2, 38, 0.000000 
atom, coeffidx, coeff: 2, 39, 0.000000 
atom, coeffidx, coeff: 2, 40, 0.000000 
atom, coeffidx, coeff: 2, 41, 0.000000 
atom, coeffidx, coeff: 2, 42, 0.000000 
atom, coeffidx, coeff: 2, 43, 0.000000 
atom, coeffidx, coeff: 2, 44, 0.000000 
atom, coeffidx, coeff: 2, 45, 0.000000 
atom, coeffidx, coeff: 2, 46, 0.000000 
atom, coeffidx, coeff: 2, 47, 0.000000 
atom, coeffidx, coeff: 2, 48, 0.000000 
atom, coeffidx, coeff: 2, 49, 0.000000 
atom, coeffidx, coeff: 2, 50, 0.000000 
atom, coeffidx, coeff: 2, 51, 0.000000 
atom, coeffidx, coeff: 2, 52, 0.000000 
atom, coeffidx, coeff: 2, 53, 0.000000 
atom, coeffidx, coeff: 2, 54, 0.000000 
atom, coeffidx, coeff: 2, 55, 0.000000 
atom, coeffidx, coeff: 2, 56, 0.000000 
atom, coeffidx, coeff: 2, 57, 0.000000 
atom, coeffidx, coeff: 2, 58, 0.000000 
atom, coeffidx, coeff: 2, 59, 0.000000 
atom, coeffidx, coeff: 2, 60, 0.000000 
atom, coeffidx, coeff: 2, 61, 0.000000 
atom, coeffidx, coeff: 2, 62, 0.000000 
atom, coeffidx, coeff: 2, 63, 0.000000 
atom, coeffidx, coeff: 2, 64, 0.000000 
atom, coeffidx, coeff: 2, 65, 0.000000 
atom, coeffidx, coeff: 2, 66, 0.000000 
atom, coeffidx, coeff: 2, 67, 0.000000 
atom, coeffidx, coeff: 2, 68, 0.000000 
atom, coeffidx, coeff: 2, 69, 0.000000 
atom, coeffidx, coeff: 2, 70, 0.000000 
atom, coeffidx, coeff: 2, 71, 0.000000 
atom, coeffidx, coeff: 2, 72, 0.000000 
atom, coeffidx, coeff: 2, 73, 0.000000 
atom, coeffidx, coeff: 2, 74, 0.000000 
atom, coeffidx, coeff: 2, 75, 0.000000 
atom, coeffidx, coeff: 2, 76, 0.000000 
atom, coeffidx, coeff: 2, 77, 0.000000 
atom, coeffidx, coeff: 2, 78, 206.399519 
atom, coeffidx, coeff: 2, 79, 2.723117 
atom, coeffidx, coeff: 2, 80, 109.715456 
atom, coeffidx, coeff: 2, 81, 21.627317 
atom, coeffidx, coeff: 2, 82, 1.372730 
atom, coeffidx, coeff: 2, 83, 22.515177 
atom, coeffidx, coeff: 2, 84, 2.266191 
atom, coeffidx, coeff: 2, 85, 0.710998 
atom, coeffidx, coeff: 2, 86, 4.754766 
atom, coeffidx, coeff: 2, 87, 0.000000 
atom, coeffidx, coeff: 2, 88, 0.000000 
atom, coeffidx, coeff: 2, 89, 0.000000 
atom, coeffidx, coeff: 2, 90, 0.000000 
atom, coeffidx, coeff: 2, 91, 0.000000 
atom, coeffidx, coeff: 2, 92, 0.000000 
atom, coeffidx, coeff: 2, 93, 0.000000 
atom, coeffidx, coeff: 2, 94, 0.000000 
atom, coeffidx, coeff: 2, 95, 0.000000 
atom, coeffidx, coeff: 2, 96, 0.000000 
atom, coeffidx, coeff: 2, 97, 0.000000 
atom, coeffidx, coeff: 2, 98, 0.000000 
atom, coeffidx, coeff: 2, 99, 0.000000 
atom, coeffidx, coeff: 2, 100, 0.000000 
atom, coeffidx, coeff: 2, 101, 0.000000 
atom, coeffidx, coeff: 2, 102, 0.000000 
atom, coeffidx, coeff: 2, 103, 0.000000 
atom, coeffidx, coeff: 2, 104, 0.000000 
atom, coeffidx, coeff: 2, 105, 0.000000 
atom, coeffidx, coeff: 2, 106, 0.000000 
atom, coeffidx, coeff: 2, 107, 0.000000 
atom, coeffidx, coeff: 2, 108, 0.000000 
atom, coeffidx, coeff: 2, 109, 0.000000 
atom, coeffidx, coeff: 2, 110, 0.000000 
atom, coeffidx, coeff: 2, 111, 0.000000 
atom, coeffidx, coeff: 2, 112, 0.000000 
atom, coeffidx, coeff: 2, 113, 0.000000 
atom, coeffidx, coeff: 2, 114, 0.000000 
atom, coeffidx, coeff: 2, 115, 0.000000 
atom, coeffidx, coeff: 2, 116, 0.000000 
atom, coeffidx, coeff: 2, 117, 0.000000 
atom, coeffidx, coeff: 2, 118, 0.000000 
atom, coeffidx, coeff: 2, 119, 0.000000 
atom, coeffidx, coeff: 2, 120, 0.000000 
atom, coeffidx, coeff: 2, 121, 0.000000 
atom, coeffidx, coeff: 2, 122, 0.000000 
atom, coeffidx, coeff: 2, 123, 0.000000 
atom, coeffidx, coeff: 2, 124, 0.000000 
atom, coeffidx, coeff: 2, 125, 0.000000 
atom, coeffidx, coeff: 2, 126, 0.000000 
atom, coeffidx, coeff: 2, 127, 0.000000 
atom, coeffidx, coeff: 2, 128, 0.000000 
atom, coeffidx, coeff: 2, 129, 0.000000 
atom, coeffidx, coeff: 2, 130, 0.000000 
atom, coeffidx, coeff: 2, 131, 0.000000 
atom, coeffidx, coeff: 2, 132, 0.000000 
atom, coeffidx, coeff: 2, 133, 0.000000 
atom, coeffidx, coeff: 2, 134, 0.000000 
atom, coeffidx, coeff: 2, 135, 0.000000 
atom, coeffidx, coeff: 2, 136, 0.000000 
atom, coeffidx, coeff: 2, 137, 0.000000 
atom, coeffidx, coeff: 2, 138, 0.000000 
atom, coeffidx, coeff: 2, 139, 0.000000 
atom, coeffidx, coeff: 2, 140, 0.000000 
atom, coeffidx, coeff: 2, 141, 0.000000 
atom, coeffidx, coeff: 2, 142, 0.000000 
atom, coeffidx, coeff: 2, 143, 0.000000 
atom, coeffidx, coeff: 2, 144, 0.000000 
atom, coeffidx, coeff: 2, 145, 0.000000 
atom, coeffidx, coeff: 2, 146, 0.000000 
atom, coeffidx, coeff: 2, 147, 0.000000 
atom, coeffidx, coeff: 2, 148, 0.000000 
atom, coeffidx, coeff: 2, 149, 0.000000 
atom, coeffidx, coeff: 2, 150, 0.000000 
atom, coeffidx, coeff: 2, 151, 0.000000 
atom, coeffidx, coeff: 2, 152, 0.000000 
atom, coeffidx, coeff: 2, 153, 0.000000 
atom, coeffidx, coeff: 2, 154, 0.000000 
atom, coeffidx, coeff: 2, 155, 0.000000 
atom, coeffidx, coeff: 2, 156, 0.000000 
atom, coeffidx, coeff: 2, 157, 0.000000 
atom, coeffidx, coeff: 2, 158, 0.000000 
atom, coeffidx, coeff: 2, 159, 206.399519 
atom, coeffidx, coeff: 2, 160, 2.723117 
atom, coeffidx, coeff: 2, 161, 109.715456 
atom, coeffidx, coeff: 2, 162, 21.627317 
atom, coeffidx, coeff: 2, 163, 1.372730 
atom, coeffidx, coeff: 2, 164, 22.515177 
atom, coeffidx, coeff: 2, 165, 2.266191 
atom, coeffidx, coeff: 2, 166, 0.710998 
atom, coeffidx, coeff: 2, 167, 4.754766 
atom, coeffidx, coeff: 2, 168, 0.000000 
atom, coeffidx, coeff: 2, 169, 0.000000 
atom, coeffidx, coeff: 2, 170, 0.000000 
atom, coeffidx, coeff: 2, 171, 0.000000 
atom, coeffidx, coeff: 2, 172, 0.000000 
atom, coeffidx, coeff: 2, 173, 0.000000 
atom, coeffidx, coeff: 2, 174, 0.000000 
atom, coeffidx, coeff: 2, 175, 0.000000 
atom, coeffidx, coeff: 2, 176, 0.000000 
atom, coeffidx, coeff: 2, 177, 0.000000 
atom, coeffidx, coeff: 2, 178, 0.000000 
atom, coeffidx, coeff: 2, 179, 0.000000 
atom, coeffidx, coeff: 2, 180, 0.000000 
atom, coeffidx, coeff: 2, 181, 13560422102480787298481429067340956997952061020834964059894860068979716861769624561921528604523258739066827003040295600664814085169915278537154808259819643939409887232.000000 
atom, coeffidx, coeff: 2, 182, 0.000000 
atom, coeffidx, coeff: 2, 183, 0.000000 
atom, coeffidx, coeff: 2, 184, 89991526910876127548284106677843456539274349597277255964239466573343686116314846570913117864936057003958100366306008398232178130944.000000 
atom, coeffidx, coeff: 2, 185, 0.000000 
atom, coeffidx, coeff: 2, 186, 0.000000 
atom, coeffidx, coeff: 2, 187, 0.000000 
atom, coeffidx, coeff: 2, 188, 0.000000 
atom, coeffidx, coeff: 2, 189, 0.000000 
atom, coeffidx, coeff: 2, 190, 0.000000 
atom, coeffidx, coeff: 2, 191, 0.000000 
atom, coeffidx, coeff: 2, 192, 0.000000 
atom, coeffidx, coeff: 2, 193, 0.000000 
atom, coeffidx, coeff: 2, 194, 0.000000 
atom, coeffidx, coeff: 2, 195, 0.000000 
atom, coeffidx, coeff: 2, 196, 0.000000 
atom, coeffidx, coeff: 2, 197, 0.000000 
atom, coeffidx, coeff: 2, 198, 0.000000 
atom, coeffidx, coeff: 2, 199, 0.000000 
atom, coeffidx, coeff: 2, 200, 0.000000 
atom, coeffidx, coeff: 2, 201, 0.000000 
atom, coeffidx, coeff: 2, 202, 0.000000 
atom, coeffidx, coeff: 2, 203, 0.000000 
atom, coeffidx, coeff: 2, 204, 0.000000 
atom, coeffidx, coeff: 2, 205, 0.000000 
atom, coeffidx, coeff: 2, 206, 0.000000 
atom, coeffidx, coeff: 2, 207, 0.000000 
atom, coeffidx, coeff: 2, 208, 0.000000 
atom, coeffidx, coeff: 2, 209, 0.000000 
atom, coeffidx, coeff: 2, 210, 0.000000 
atom, coeffidx, coeff: 2, 211, 0.000000 
atom, coeffidx, coeff: 2, 212, 0.000000 
atom, coeffidx, coeff: 2, 213, 0.000000 
atom, coeffidx, coeff: 2, 214, 0.000000 
atom, coeffidx, coeff: 2, 215, 0.000000 
atom, coeffidx, coeff: 2, 216, 0.000000 
atom, coeffidx, coeff: 2, 217, 0.000000 
atom, coeffidx, coeff: 2, 218, 0.000000 
atom, coeffidx, coeff: 2, 219, 0.000000 
atom, coeffidx, coeff: 2, 220, 0.000000 
atom, coeffidx, coeff: 2, 221, 0.000000 
atom, coeffidx, coeff: 2, 222, 0.000000 
atom, coeffidx, coeff: 2, 223, 0.000000 
atom, coeffidx, coeff: 2, 224, 0.000000 
atom, coeffidx, coeff: 2, 225, 0.000000 
atom, coeffidx, coeff: 2, 226, 0.000000 
atom, coeffidx, coeff: 2, 227, 0.000000 
atom, coeffidx, coeff: 2, 228, 0.000000 
atom, coeffidx, coeff: 2, 229, 0.000000 
atom, coeffidx, coeff: 2, 230, 0.000000 
atom, coeffidx, coeff: 2, 231, 0.000000 
atom, coeffidx, coeff: 2, 232, 0.000000 
atom, coeffidx, coeff: 2, 233, 0.000000 
atom, coeffidx, coeff: 2, 234, 0.000000 
atom, coeffidx, coeff: 2, 235, 0.000000 
atom, coeffidx, coeff: 2, 236, 0.000000 
atom, coeffidx, coeff: 2, 237, 0.000000 
atom, coeffidx, coeff: 2, 238, 0.000000 
atom, coeffidx, coeff: 2, 239, 0.000000 
atom, coeffidx, coeff: 2, 240, 0.000000 
atom, coeffidx, coeff: 2, 241, 0.000000 
atom, coeffidx, coeff: 2, 242, 0.000000 
atom, coeffidx, coeff: 2, 243, 0.000000 
atom, coeffidx, coeff: 2, 244, 0.000000 
atom, coeffidx, coeff: 2, 245, 0.000000 
atom, coeffidx, coeff: 2, 246, 0.000000 
atom, coeffidx, coeff: 2, 247, 0.000000 
atom, coeffidx, coeff: 2, 248, 0.000000 
atom, coeffidx, coeff: 2, 249, 0.000000 
atom, coeffidx, coeff: 2, 250, 0.000000 
atom, coeffidx, coeff: 2, 251, 0.000000 
atom, coeffidx, coeff: 2, 252, 0.000000 
atom, coeffidx, coeff: 2, 253, 0.000000 
atom, coeffidx, coeff: 2, 254, 0.000000 
atom, coeffidx, coeff: 2, 255, 0.000000 
atom, coeffidx, coeff: 2, 256, 0.000000 
atom, coeffidx, coeff: 2, 257, 0.000000 
atom, coeffidx, coeff: 2, 258, 0.000000 
atom, coeffidx, coeff: 2, 259, 0.000000 
atom, coeffidx, coeff: 2, 260, 0.000000 
atom, coeffidx, coeff: 2, 261, 0.000000 
atom, coeffidx, coeff: 2, 262, 0.000000 
atom, coeffidx, coeff: 2, 263, 0.000000 
atom, coeffidx, coeff: 2, 264, 0.000000 
atom, coeffidx, coeff: 2, 265, 0.000000 
atom, coeffidx, coeff: 2, 266, 0.000000 
atom, coeffidx, coeff: 2, 267, 0.000000 
atom, coeffidx, coeff: 2, 268, 0.000000 
atom, coeffidx, coeff: 2, 269, 0.000000 
atom, coeffidx, coeff: 2, 270, 0.000000 
atom, coeffidx, coeff: 2, 271, 0.000000 
atom, coeffidx, coeff: 2, 272, 0.000000 
atom, coeffidx, coeff: 2, 273, 0.000000 
atom, coeffidx, coeff: 2, 274, 0.000000 
atom, coeffidx, coeff: 2, 275, 0.000000 
atom, coeffidx, coeff: 2, 276, 0.000000 
atom, coeffidx, coeff: 2, 277, 0.000000 
atom, coeffidx, coeff: 2, 278, 0.000000 
atom, coeffidx, coeff: 2, 279, 0.000000 
atom, coeffidx, coeff: 2, 280, 0.000000 
atom, coeffidx, coeff: 2, 281, 0.000000 
atom, coeffidx, coeff: 2, 282, 0.000000 
atom, coeffidx, coeff: 2, 283, 0.000000 
atom, coeffidx, coeff: 2, 284, 0.000000 
atom, coeffidx, coeff: 2, 285, 0.000000 
atom, coeffidx, coeff: 2, 286, 0.000000 
atom, coeffidx, coeff: 2, 287, 0.000000 
atom, coeffidx, coeff: 2, 288, 0.000000 
atom, coeffidx, coeff: 2, 289, 0.000000 
atom, coeffidx, coeff: 2, 290, 0.000000 
atom, coeffidx, coeff: 2, 291, 0.000000 
atom, coeffidx, coeff: 2, 292, 0.000000 
atom, coeffidx, coeff: 2, 293, 0.000000 
atom, coeffidx, coeff: 2, 294, 0.000000 
atom, coeffidx, coeff: 2, 295, 0.000000 
atom, coeffidx, coeff: 2, 296, 0.000000 
atom, coeffidx, coeff: 2, 297, 0.000000 
atom, coeffidx, coeff: 2, 298, 0.000000 
atom, coeffidx, coeff: 2, 299, 0.000000 
atom, coeffidx, coeff: 2, 300, 0.000000 
atom, coeffidx, coeff: 2, 301, 0.000000 
atom, coeffidx, coeff: 2, 302, 0.000000 
atom, coeffidx, coeff: 2, 303, 0.000000 
atom, coeffidx, coeff: 2, 304, 0.000000 
atom, coeffidx, coeff: 2, 305, 0.000000 
atom, coeffidx, coeff: 2, 306, 0.000000 
atom, coeffidx, coeff: 2, 307, 0.000000 
atom, coeffidx, coeff: 2, 308, 0.000000 
atom, coeffidx, coeff: 2, 309, 0.000000 
atom, coeffidx, coeff: 2, 310, 0.000000 
atom, coeffidx, coeff: 2, 311, 0.000000 
atom, coeffidx, coeff: 2, 312, 0.000000 
atom, coeffidx, coeff: 2, 313, 0.000000 
atom, coeffidx, coeff: 2, 314, 0.000000 
atom, coeffidx, coeff: 2, 315, 0.000000 
atom, coeffidx, coeff: 2, 316, 0.000000 
atom, coeffidx, coeff: 2, 317, 0.000000 
atom, coeffidx, coeff: 2, 318, 0.000000 
atom, coeffidx, coeff: 2, 319, 0.000000 
atom, coeffidx, coeff: 2, 320, 0.000000 
atom, coeffidx, coeff: 2, 321, 0.000000 
atom, coeffidx, coeff: 2, 322, 0.000000 
atom, coeffidx, coeff: 2, 323, 0.000000 
atom, coeffidx, coeff: 2, 324, 0.000000 
atom, coeffidx, coeff: 2, 325, 0.000000 
atom, coeffidx, coeff: 2, 326, 0.000000 
atom, coeffidx, coeff: 2, 327, 0.000000 
atom, coeffidx, coeff: 2, 328, 0.000000 
atom, coeffidx, coeff: 2, 329, 0.000000 
atom, coeffidx, coeff: 2, 330, 0.000000 
atom, coeffidx, coeff: 2, 331, 0.000000 
atom, coeffidx, coeff: 2, 332, 0.000000 
atom, coeffidx, coeff: 2, 333, 0.000000 
atom, coeffidx, coeff: 2, 334, 0.000000 
atom, coeffidx, coeff: 2, 335, 0.000000 
atom, coeffidx, coeff: 2, 336, 0.000000 
atom, coeffidx, coeff: 2, 337, 0.000000 
atom, coeffidx, coeff: 2, 338, 0.000000 
atom, coeffidx, coeff: 2, 339, 0.000000 
atom, coeffidx, coeff: 2, 340, 0.000000 
atom, coeffidx, coeff: 2, 341, 0.000000 
atom, coeffidx, coeff: 2, 342, 0.000000 
atom, coeffidx, coeff: 2, 343, 0.000000 
atom, coeffidx, coeff: 2, 344, 0.000000 
atom, coeffidx, coeff: 2, 345, 0.000000 
atom, coeffidx, coeff: 2, 346, 0.000000 
atom, coeffidx, coeff: 2, 347, 0.000000 
atom, coeffidx, coeff: 2, 348, 0.000000 
atom, coeffidx, coeff: 2, 349, 0.000000 
atom, coeffidx, coeff: 2, 350, 0.000000 
atom, coeffidx, coeff: 2, 351, 0.000000 
atom, coeffidx, coeff: 2, 352, 0.000000 
atom, coeffidx, coeff: 2, 353, 0.000000 
atom, coeffidx, coeff: 2, 354, -0.000000 
atom, coeffidx, coeff: 2, 355, 0.000000 
atom, coeffidx, coeff: 2, 356, 0.000000 
atom, coeffidx, coeff: 2, 357, 0.000000 
atom, coeffidx, coeff: 2, 358, 0.000000 
atom, coeffidx, coeff: 2, 359, 0.000000 
atom, coeffidx, coeff: 2, 360, 0.000000 
atom, coeffidx, coeff: 2, 361, 0.000000 
atom, coeffidx, coeff: 2, 362, 0.000000 
atom, coeffidx, coeff: 2, 363, 0.000000 
atom, coeffidx, coeff: 2, 364, 0.000000 
atom, coeffidx, coeff: 2, 365, 0.000000 
atom, coeffidx, coeff: 2, 366, 0.000000 
atom, coeffidx, coeff: 2, 367, 0.000000 
atom, coeffidx, coeff: 2, 368, 0.000000 
atom, coeffidx, coeff: 2, 369, 0.000000 
atom, coeffidx, coeff: 2, 370, 0.000000 
atom, coeffidx, coeff: 2, 371, 0.000000 
atom, coeffidx, coeff: 2, 372, 0.000000 
atom, coeffidx, coeff: 2, 373, 0.000000 
atom, coeffidx, coeff: 2, 374, 0.000000 
atom, coeffidx, coeff: 2, 375, 0.000000 
atom, coeffidx, coeff: 2, 376, 0.000000 
atom, coeffidx, coeff: 2, 377, 0.000000 
atom, coeffidx, coeff: 2, 378, 0.000000 
atom, coeffidx, coeff: 2, 379, 0.000000 
atom, coeffidx, coeff: 2, 380, 0.000000 
atom, coeffidx, coeff: 2, 381, 0.000000 
atom, coeffidx, coeff: 2, 382, 0.000000 
atom, coeffidx, coeff: 2, 383, 0.000000 
atom, coeffidx, coeff: 2, 384, 0.000000 
atom, coeffidx, coeff: 2, 385, 0.000000 
atom, coeffidx, coeff: 2, 386, 0.000000 
atom, coeffidx, coeff: 2, 387, 0.000000 
atom, coeffidx, coeff: 2, 388, 0.000000 
atom, coeffidx, coeff: 2, 389, 0.000000 
atom, coeffidx, coeff: 2, 390, 0.000000 
atom, coeffidx, coeff: 2, 391, 0.000000 
atom, coeffidx, coeff: 2, 392, 0.000000 
atom, coeffidx, coeff: 2, 393, 0.000000 
atom, coeffidx, coeff: 2, 394, 0.000000 
atom, coeffidx, coeff: 2, 395, 0.000000 
atom, coeffidx, coeff: 2, 396, 0.000000 
atom, coeffidx, coeff: 2, 397, 0.000000 
atom, coeffidx, coeff: 2, 398, 0.000000 
atom, coeffidx, coeff: 2, 399, 0.000000 
atom, coeffidx, coeff: 2, 400, 0.000000 
atom, coeffidx, coeff: 2, 401, 0.000000 
atom, coeffidx, coeff: 2, 402, 0.000000 
atom, coeffidx, coeff: 2, 403, 0.000000 
atom, coeffidx, coeff: 2, 404, 0.000000 
atom, coeffidx, coeff: 2, 405, 0.000000 
atom, coeffidx, coeff: 2, 406, 0.000000 
atom, coeffidx, coeff: 2, 407, 0.000000 
atom, coeffidx, coeff: 2, 408, 0.000000 
atom, coeffidx, coeff: 2, 409, 0.000000 
atom, coeffidx, coeff: 2, 410, 0.000000 
atom, coeffidx, coeff: 2, 411, 0.000000 
atom, coeffidx, coeff: 2, 412, 0.000000 
atom, coeffidx, coeff: 2, 413, 0.000000 
atom, coeffidx, coeff: 2, 414, 0.000000 
atom, coeffidx, coeff: 2, 415, 0.000000 
atom, coeffidx, coeff: 2, 416, 0.000000 
atom, coeffidx, coeff: 2, 417, 0.000000 
atom, coeffidx, coeff: 2, 418, 0.000000 
atom, coeffidx, coeff: 2, 419, 0.000000 
atom, coeffidx, coeff: 2, 420, 0.000000 
atom, coeffidx, coeff: 2, 421, 0.000000 
atom, coeffidx, coeff: 2, 422, 0.000000 
atom, coeffidx, coeff: 2, 423, 0.000000 
atom, coeffidx, coeff: 2, 424, 0.000000 
atom, coeffidx, coeff: 2, 425, 0.000000 
atom, coeffidx, coeff: 2, 426, 0.000000 
atom, coeffidx, coeff: 2, 427, 0.000000 
atom, coeffidx, coeff: 2, 428, 0.000000 
atom, coeffidx, coeff: 2, 429, 0.000000 
atom, coeffidx, coeff: 2, 430, 0.000000 
atom, coeffidx, coeff: 2, 431, 0.000000 
atom, coeffidx, coeff: 2, 432, 0.000000 
atom, coeffidx, coeff: 2, 433, 0.000000 
atom, coeffidx, coeff: 2, 434, 0.000000 
atom, coeffidx, coeff: 2, 435, 0.000000 
atom, coeffidx, coeff: 2, 436, 0.000000 
atom, coeffidx, coeff: 2, 437, 0.000000 
atom, coeffidx, coeff: 2, 438, 0.000000 
atom, coeffidx, coeff: 2, 439, 0.000000 
atom, coeffidx, coeff: 2, 440, 0.000000 
atom, coeffidx, coeff: 2, 441, 0.000000 
atom, coeffidx, coeff: 2, 442, 0.000000 
atom, coeffidx, coeff: 2, 443, 0.000000 
atom, coeffidx, coeff: 2, 444, 0.000000 
atom, coeffidx, coeff: 2, 445, 0.000000 
atom, coeffidx, coeff: 2, 446, 0.000000 
atom, coeffidx, coeff: 2, 447, 0.000000 
atom, coeffidx, coeff: 2, 448, 0.000000 
atom, coeffidx, coeff: 2, 449, 0.000000 
atom, coeffidx, coeff: 2, 450, 0.000000 
atom, coeffidx, coeff: 2, 451, 0.000000 
atom, coeffidx, coeff: 2, 452, 0.000000 
atom, coeffidx, coeff: 2, 453, 0.000000 
atom, coeffidx, coeff: 2, 454, 0.000000 
atom, coeffidx, coeff: 2, 455, 0.000000 
atom, coeffidx, coeff: 2, 456, 0.000000 
atom, coeffidx, coeff: 2, 457, 0.000000 
atom, coeffidx, coeff: 2, 458, 0.000000 
atom, coeffidx, coeff: 2, 459, 0.000000 
atom, coeffidx, coeff: 2, 460, 0.000000 
atom, coeffidx, coeff: 2, 461, 0.000000 
atom, coeffidx, coeff: 2, 462, 0.000000 
atom, coeffidx, coeff: 2, 463, 0.000000 
atom, coeffidx, coeff: 2, 464, 0.000000 
atom, coeffidx, coeff: 2, 465, 0.000000 
atom, coeffidx, coeff: 2, 466, 0.000000 
atom, coeffidx, coeff: 2, 467, 0.000000 
atom, coeffidx, coeff: 2, 468, 0.000000 
atom, coeffidx, coeff: 2, 469, 0.000000 
atom, coeffidx, coeff: 2, 470, 0.000000 
atom, coeffidx, coeff: 2, 471, 0.000000 
atom, coeffidx, coeff: 2, 472, 0.000000 
atom, coeffidx, coeff: 2, 473, 0.000000 
atom, coeffidx, coeff: 2, 474, 0.000000 
atom, coeffidx, coeff: 2, 475, 0.000000 
atom, coeffidx, coeff: 2, 476, 0.000000 
atom, coeffidx, coeff: 2, 477, 0.000000 
atom, coeffidx, coeff: 2, 478, 0.000000 
atom, coeffidx, coeff: 2, 479, 0.000000 
atom, coeffidx, coeff: 2, 480, 0.000000 
atom, coeffidx, coeff: 2, 481, 0.000000 
atom, coeffidx, coeff: 2, 482, 0.000000 
atom, coeffidx, coeff: 2, 483, 0.000000 
atom, coeffidx, coeff: 2, 484, 0.000000 
atom, coeffidx, coeff: 2, 485, 0.000000 
atom, coeffidx, coeff: 2, 486, 0.000000 
atom, coeffidx, coeff: 2, 487, 0.000000 
atom, coeffidx, coeff: 2, 488, 0.000000 
atom, coeffidx, coeff: 2, 489, 0.000000 
atom, coeffidx, coeff: 2, 490, 0.000000 
atom, coeffidx, coeff: 2, 491, 0.000000 
atom, coeffidx, coeff: 2, 492, 0.000000 
atom, coeffidx, coeff: 2, 493, 0.000000 
atom, coeffidx, coeff: 2, 494, 0.000000 
atom, coeffidx, coeff: 2, 495, 0.000000 
atom, coeffidx, coeff: 2, 496, 0.000000 
atom, coeffidx, coeff: 2, 497, 0.000000 
atom, coeffidx, coeff: 2, 498, 0.000000 
atom, coeffidx, coeff: 2, 499, 0.000000 
atom, coeffidx, coeff: 2, 500, 0.000000 
atom, coeffidx, coeff: 2, 501, 0.000000 
atom, coeffidx, coeff: 2, 502, 0.000000 
atom, coeffidx, coeff: 2, 503, 0.000000 
beginning of en basis loop
function index: 0 
function index: 1 
function index: 2 
function index: 3 
function index: 4 
function index: 5 
atom, coeffidx, coeff: 3, 0, 0.000000 
atom, coeffidx, coeff: 3, 1, 0.000000 
atom, coeffidx, coeff: 3, 2, 14.139259 
atom, coeffidx, coeff: 3, 3, 0.000000 
atom, coeffidx, coeff: 3, 4, 0.000000 
atom, coeffidx, coeff: 3, 5, 14.139259 
atom, coeffidx, coeff: 3, 6, 0.000000 
atom, coeffidx, coeff: 3, 7, 0.000000 
atom, coeffidx, coeff: 3, 8, 0.000000 
atom, coeffidx, coeff: 3, 9, 0.000000 
atom, coeffidx, coeff: 3, 10, 0.000000 
atom, coeffidx, coeff: 3, 11, 0.000000 
atom, coeffidx, coeff: 3, 12, 0.000000 
atom, coeffidx, coeff: 3, 13, 0.000000 
atom, coeffidx, coeff: 3, 14, 0.000000 
atom, coeffidx, coeff: 3, 15, 0.000000 
atom, coeffidx, coeff: 3, 16, 0.000000 
atom, coeffidx, coeff: 3, 17, 0.000000 
atom, coeffidx, coeff: 3, 18, 0.000000 
atom, coeffidx, coeff: 3, 19, 0.000000 
atom, coeffidx, coeff: 3, 20, 0.000000 
atom, coeffidx, coeff: 3, 21, 0.000000 
atom, coeffidx, coeff: 3, 22, 0.000000 
atom, coeffidx, coeff: 3, 23, 0.000000 
atom, coeffidx, coeff: 3, 24, 0.000000 
atom, coeffidx, coeff: 3, 25, 0.000000 
atom, coeffidx, coeff: 3, 26, 0.000000 
atom, coeffidx, coeff: 3, 27, 0.000000 
atom, coeffidx, coeff: 3, 28, 0.000000 
atom, coeffidx, coeff: 3, 29, 0.000000 
atom, coeffidx, coeff: 3, 30, 0.000000 
atom, coeffidx, coeff: 3, 31, 0.000000 
atom, coeffidx, coeff: 3, 32, 0.000000 
atom, coeffidx, coeff: 3, 33, 0.000000 
atom, coeffidx, coeff: 3, 34, 0.000000 
atom, coeffidx, coeff: 3, 35, 0.000000 
atom, coeffidx, coeff: 3, 36, 0.000000 
atom, coeffidx, coeff: 3, 37, 0.000000 
atom, coeffidx, coeff: 3, 38, 0.000000 
atom, coeffidx, coeff: 3, 39, 0.000000 
atom, coeffidx, coeff: 3, 40, 0.000000 
atom, coeffidx, coeff: 3, 41, 0.000000 
atom, coeffidx, coeff: 3, 42, 0.000000 
atom, coeffidx, coeff: 3, 43, 0.000000 
atom, coeffidx, coeff: 3, 44, 0.000000 
atom, coeffidx, coeff: 3, 45, 0.000000 
atom, coeffidx, coeff: 3, 46, 0.000000 
atom, coeffidx, coeff: 3, 47, 0.000000 
atom, coeffidx, coeff: 3, 48, 0.000000 
atom, coeffidx, coeff: 3, 49, 0.000000 
atom, coeffidx, coeff: 3, 50, 0.000000 
atom, coeffidx, coeff: 3, 51, 0.000000 
atom, coeffidx, coeff: 3, 52, 0.000000 
atom, coeffidx, coeff: 3, 53, 0.000000 
atom, coeffidx, coeff: 3, 54, 0.000000 
atom, coeffidx, coeff: 3, 55, 0.000000 
atom, coeffidx, coeff: 3, 56, 0.000000 
atom, coeffidx, coeff: 3, 57, 0.000000 
atom, coeffidx, coeff: 3, 58, 0.000000 
atom, coeffidx, coeff: 3, 59, 0.000000 
atom, coeffidx, coeff: 3, 60, 0.000000 
atom, coeffidx, coeff: 3, 61, 0.000000 
atom, coeffidx, coeff: 3, 62, 0.000000 
atom, coeffidx, coeff: 3, 63, 0.000000 
atom, coeffidx, coeff: 3, 64, 0.000000 
atom, coeffidx, coeff: 3, 65, 0.000000 
atom, coeffidx, coeff: 3, 66, 0.000000 
atom, coeffidx, coeff: 3, 67, 0.000000 
atom, coeffidx, coeff: 3, 68, 0.000000 
atom, coeffidx, coeff: 3, 69, 0.000000 
atom, coeffidx, coeff: 3, 70, 0.000000 
atom, coeffidx, coeff: 3, 71, 0.000000 
atom, coeffidx, coeff: 3, 72, 0.000000 
atom, coeffidx, coeff: 3, 73, 0.000000 
atom, coeffidx, coeff: 3, 74, 0.000000 
atom, coeffidx, coeff: 3, 75, 0.000000 
atom, coeffidx, coeff: 3, 76, 0.000000 
atom, coeffidx, coeff: 3, 77, 0.000000 
atom, coeffidx, coeff: 3, 78, 199.918645 
atom, coeffidx, coeff: 3, 79, 0.223757 
atom, coeffidx, coeff: 3, 80, 11.388182 
atom, coeffidx, coeff: 3, 81, 29.474021 
atom, coeffidx, coeff: 3, 82, 0.022791 
atom, coeffidx, coeff: 3, 83, 1.286266 
atom, coeffidx, coeff: 3, 84, 4.345357 
atom, coeffidx, coeff: 3, 85, 0.003553 
atom, coeffidx, coeff: 3, 86, 0.158949 
atom, coeffidx, coeff: 3, 87, 0.000000 
atom, coeffidx, coeff: 3, 88, 0.000000 
atom, coeffidx, coeff: 3, 89, 0.000000 
atom, coeffidx, coeff: 3, 90, 0.000000 
atom, coeffidx, coeff: 3, 91, 0.000000 
atom, coeffidx, coeff: 3, 92, 0.000000 
atom, coeffidx, coeff: 3, 93, 0.000000 
atom, coeffidx, coeff: 3, 94, 0.000000 
atom, coeffidx, coeff: 3, 95, 0.000000 
atom, coeffidx, coeff: 3, 96, 0.000000 
atom, coeffidx, coeff: 3, 97, 0.000000 
atom, coeffidx, coeff: 3, 98, 0.000000 
atom, coeffidx, coeff: 3, 99, 0.000000 
atom, coeffidx, coeff: 3, 100, 0.000000 
atom, coeffidx, coeff: 3, 101, 0.000000 
atom, coeffidx, coeff: 3, 102, 0.000000 
atom, coeffidx, coeff: 3, 103, 0.000000 
atom, coeffidx, coeff: 3, 104, 0.000000 
atom, coeffidx, coeff: 3, 105, 0.000000 
atom, coeffidx, coeff: 3, 106, 0.000000 
atom, coeffidx, coeff: 3, 107, 0.000000 
atom, coeffidx, coeff: 3, 108, 0.000000 
atom, coeffidx, coeff: 3, 109, 0.000000 
atom, coeffidx, coeff: 3, 110, 0.000000 
atom, coeffidx, coeff: 3, 111, 0.000000 
atom, coeffidx, coeff: 3, 112, 0.000000 
atom, coeffidx, coeff: 3, 113, 0.000000 
atom, coeffidx, coeff: 3, 114, 0.000000 
atom, coeffidx, coeff: 3, 115, 0.000000 
atom, coeffidx, coeff: 3, 116, 0.000000 
atom, coeffidx, coeff: 3, 117, 0.000000 
atom, coeffidx, coeff: 3, 118, 0.000000 
atom, coeffidx, coeff: 3, 119, 0.000000 
atom, coeffidx, coeff: 3, 120, 0.000000 
atom, coeffidx, coeff: 3, 121, 0.000000 
atom, coeffidx, coeff: 3, 122, 0.000000 
atom, coeffidx, coeff: 3, 123, 0.000000 
atom, coeffidx, coeff: 3, 124, 0.000000 
atom, coeffidx, coeff: 3, 125, 0.000000 
atom, coeffidx, coeff: 3, 126, 0.000000 
atom, coeffidx, coeff: 3, 127, 0.000000 
atom, coeffidx, coeff: 3, 128, 0.000000 
atom, coeffidx, coeff: 3, 129, 0.000000 
atom, coeffidx, coeff: 3, 130, 0.000000 
atom, coeffidx, coeff: 3, 131, 0.000000 
atom, coeffidx, coeff: 3, 132, 0.000000 
atom, coeffidx, coeff: 3, 133, 0.000000 
atom, coeffidx, coeff: 3, 134, 0.000000 
atom, coeffidx, coeff: 3, 135, 0.000000 
atom, coeffidx, coeff: 3, 136, 0.000000 
atom, coeffidx, coeff: 3, 137, 0.000000 
atom, coeffidx, coeff: 3, 138, 0.000000 
atom, coeffidx, coeff: 3, 139, 0.000000 
atom, coeffidx, coeff: 3, 140, 0.000000 
atom, coeffidx, coeff: 3, 141, 0.000000 
atom, coeffidx, coeff: 3, 142, 0.000000 
atom, coeffidx, coeff: 3, 143, 0.000000 
atom, coeffidx, coeff: 3, 144, 0.000000 
atom, coeffidx, coeff: 3, 145, 0.000000 
atom, coeffidx, coeff: 3, 146, 0.000000 
atom, coeffidx, coeff: 3, 147, 0.000000 
atom, coeffidx, coeff: 3, 148, 0.000000 
atom, coeffidx, coeff: 3, 149, 0.000000 
atom, coeffidx, coeff: 3, 150, 0.000000 
atom, coeffidx, coeff: 3, 151, 0.000000 
atom, coeffidx, coeff: 3, 152, 0.000000 
atom, coeffidx, coeff: 3, 153, 0.000000 
atom, coeffidx, coeff: 3, 154, 0.000000 
atom, coeffidx, coeff: 3, 155, 0.000000 
atom, coeffidx, coeff: 3, 156, 0.000000 
atom, coeffidx, coeff: 3, 157, 0.000000 
atom, coeffidx, coeff: 3, 158, 0.000000 
atom, coeffidx, coeff: 3, 159, 199.918645 
atom, coeffidx, coeff: 3, 160, 0.223757 
atom, coeffidx, coeff: 3, 161, 11.388182 
atom, coeffidx, coeff: 3, 162, 29.474021 
atom, coeffidx, coeff: 3, 163, 0.022791 
atom, coeffidx, coeff: 3, 164, 1.286266 
atom, coeffidx, coeff: 3, 165, 4.345357 
atom, coeffidx, coeff: 3, 166, 0.003553 
atom, coeffidx, coeff: 3, 167, 0.158949 
atom, coeffidx, coeff: 3, 168, 0.000000 
atom, coeffidx, coeff: 3, 169, 0.000000 
atom, coeffidx, coeff: 3, 170, 0.000000 
atom, coeffidx, coeff: 3, 171, 0.000000 
atom, coeffidx, coeff: 3, 172, 0.000000 
atom, coeffidx, coeff: 3, 173, 0.000000 
atom, coeffidx, coeff: 3, 174, 0.000000 
atom, coeffidx, coeff: 3, 175, 0.000000 
atom, coeffidx, coeff: 3, 176, 0.000000 
atom, coeffidx, coeff: 3, 177, 0.000000 
atom, coeffidx, coeff: 3, 178, 0.000000 
atom, coeffidx, coeff: 3, 179, 0.000000 
atom, coeffidx, coeff: 3, 180, 0.000000 
atom, coeffidx, coeff: 3, 181, 0.000000 
atom, coeffidx, coeff: 3, 182, 0.000000 
atom, coeffidx, coeff: 3, 183, 0.000000 
atom, coeffidx, coeff: 3, 184, 0.000000 
atom, coeffidx, coeff: 3, 185, 0.000000 
atom, coeffidx, coeff: 3, 186, 0.000000 
atom, coeffidx, coeff: 3, 187, 0.000000 
atom, coeffidx, coeff: 3, 188, 0.000000 
atom, coeffidx, coeff: 3, 189, 0.000000 
atom, coeffidx, coeff: 3, 190, 0.000000 
atom, coeffidx, coeff: 3, 191, 0.000000 
atom, coeffidx, coeff: 3, 192, 0.000000 
atom, coeffidx, coeff: 3, 193, 0.000000 
atom, coeffidx, coeff: 3, 194, 0.000000 
atom, coeffidx, coeff: 3, 195, 0.000000 
atom, coeffidx, coeff: 3, 196, 0.000000 
atom, coeffidx, coeff: 3, 197, 0.000000 
atom, coeffidx, coeff: 3, 198, 0.000000 
atom, coeffidx, coeff: 3, 199, 0.000000 
atom, coeffidx, coeff: 3, 200, 0.000000 
atom, coeffidx, coeff: 3, 201, 0.000000 
atom, coeffidx, coeff: 3, 202, 0.000000 
atom, coeffidx, coeff: 3, 203, 0.000000 
atom, coeffidx, coeff: 3, 204, 0.000000 
atom, coeffidx, coeff: 3, 205, 0.000000 
atom, coeffidx, coeff: 3, 206, 0.000000 
atom, coeffidx, coeff: 3, 207, 0.000000 
atom, coeffidx, coeff: 3, 208, 0.000000 
atom, coeffidx, coeff: 3, 209, 0.000000 
atom, coeffidx, coeff: 3, 210, 0.000000 
atom, coeffidx, coeff: 3, 211, 0.000000 
atom, coeffidx, coeff: 3, 212, 0.000000 
atom, coeffidx, coeff: 3, 213, 0.000000 
atom, coeffidx, coeff: 3, 214, 0.000000 
atom, coeffidx, coeff: 3, 215, 0.000000 
atom, coeffidx, coeff: 3, 216, 0.000000 
atom, coeffidx, coeff: 3, 217, 0.000000 
atom, coeffidx, coeff: 3, 218, 0.000000 
atom, coeffidx, coeff: 3, 219, 0.000000 
atom, coeffidx, coeff: 3, 220, 0.000000 
atom, coeffidx, coeff: 3, 221, 0.000000 
atom, coeffidx, coeff: 3, 222, 0.000000 
atom, coeffidx, coeff: 3, 223, 0.000000 
atom, coeffidx, coeff: 3, 224, 0.000000 
atom, coeffidx, coeff: 3, 225, 0.000000 
[...]
atom, coeffidx, coeff: 55, 186, 2.423506 
atom, coeffidx, coeff: 55, 187, 2.027119 
atom, coeffidx, coeff: 55, 188, 17.437752 
atom, coeffidx, coeff: 55, 189, 0.000000 
atom, coeffidx, coeff: 55, 190, 0.000000 
atom, coeffidx, coeff: 55, 191, 0.000000 
atom, coeffidx, coeff: 55, 192, 0.000000 
atom, coeffidx, coeff: 55, 193, 0.000000 
atom, coeffidx, coeff: 55, 194, 0.000000 
atom, coeffidx, coeff: 55, 195, 0.000000 
atom, coeffidx, coeff: 55, 196, 0.000000 
atom, coeffidx, coeff: 55, 197, 0.000000 
atom, coeffidx, coeff: 55, 198, 0.000000 
atom, coeffidx, coeff: 55, 199, 0.000000 
atom, coeffidx, coeff: 55, 200, 0.000000 
atom, coeffidx, coeff: 55, 201, 0.000000 
atom, coeffidx, coeff: 55, 202, 0.000000 
atom, coeffidx, coeff: 55, 203, 0.000000 
atom, coeffidx, coeff: 55, 204, 0.000000 
atom, coeffidx, coeff: 55, 205, 0.000000 
atom, coeffidx, coeff: 55, 206, 0.000000 
atom, coeffidx, coeff: 55, 207, 0.000000 
atom, coeffidx, coeff: 55, 208, 0.000000 
atom, coeffidx, coeff: 55, 209, 0.000000 
atom, coeffidx, coeff: 55, 210, 0.000000 
atom, coeffidx, coeff: 55, 211, 0.000000 
atom, coeffidx, coeff: 55, 212, 0.000000 
atom, coeffidx, coeff: 55, 213, 0.000000 
atom, coeffidx, coeff: 55, 214, 0.000000 
atom, coeffidx, coeff: 55, 215, 0.000000 
atom, coeffidx, coeff: 55, 216, 0.000000 
atom, coeffidx, coeff: 55, 217, 0.000000 
atom, coeffidx, coeff: 55, 218, 0.000000 
atom, coeffidx, coeff: 55, 219, 0.000000 
atom, coeffidx, coeff: 55, 220, 0.000000 
atom, coeffidx, coeff: 55, 221, 0.000000 
atom, coeffidx, coeff: 55, 222, 0.000000 
atom, coeffidx, coeff: 55, 223, 0.000000 
atom, coeffidx, coeff: 55, 224, 0.000000 
atom, coeffidx, coeff: 55, 225, 0.000000 
atom, coeffidx, coeff: 55, 226, 0.000000 
atom, coeffidx, coeff: 55, 227, 0.000000 
atom, coeffidx, coeff: 55, 228, 0.000000 
atom, coeffidx, coeff: 55, 229, 0.000000 
atom, coeffidx, coeff: 55, 230, 0.000000 
atom, coeffidx, coeff: 55, 231, 0.000000 
atom, coeffidx, coeff: 55, 232, 0.000000 
atom, coeffidx, coeff: 55, 233, 0.000000 
atom, coeffidx, coeff: 55, 234, 0.000000 
atom, coeffidx, coeff: 55, 235, 0.000000 
atom, coeffidx, coeff: 55, 236, 0.000000 
atom, coeffidx, coeff: 55, 237, 0.000000 
atom, coeffidx, coeff: 55, 238, 0.000000 
atom, coeffidx, coeff: 55, 239, 0.000000 
atom, coeffidx, coeff: 55, 240, 0.000000 
atom, coeffidx, coeff: 55, 241, 0.000000 
atom, coeffidx, coeff: 55, 242, 0.000000 
atom, coeffidx, coeff: 55, 243, 0.000000 
atom, coeffidx, coeff: 55, 244, 0.000000 
atom, coeffidx, coeff: 55, 245, 0.000000 
atom, coeffidx, coeff: 55, 246, 0.000000 
atom, coeffidx, coeff: 55, 247, 0.000000 
atom, coeffidx, coeff: 55, 248, 0.000000 
atom, coeffidx, coeff: 55, 249, 0.000000 
atom, coeffidx, coeff: 55, 250, 0.000000 
atom, coeffidx, coeff: 55, 251, 0.000000 
atom, coeffidx, coeff: 55, 252, 0.000000 
atom, coeffidx, coeff: 55, 253, 0.000000 
atom, coeffidx, coeff: 55, 254, 0.000000 
atom, coeffidx, coeff: 55, 255, 0.000000 
atom, coeffidx, coeff: 55, 256, 0.000000 
atom, coeffidx, coeff: 55, 257, 0.000000 
atom, coeffidx, coeff: 55, 258, 0.000000 
atom, coeffidx, coeff: 55, 259, 0.000000 
atom, coeffidx, coeff: 55, 260, 0.000000 
atom, coeffidx, coeff: 55, 261, 0.000000 
atom, coeffidx, coeff: 55, 262, 0.000000 
atom, coeffidx, coeff: 55, 263, 0.000000 
atom, coeffidx, coeff: 55, 264, 0.000000 
atom, coeffidx, coeff: 55, 265, 0.000000 
atom, coeffidx, coeff: 55, 266, 0.000000 
atom, coeffidx, coeff: 55, 267, 0.000000 
atom, coeffidx, coeff: 55, 268, 0.000000 
atom, coeffidx, coeff: 55, 269, 0.000000 
atom, coeffidx, coeff: 55, 270, 0.000000 
atom, coeffidx, coeff: 55, 271, 0.000000 
atom, coeffidx, coeff: 55, 272, 0.000000 
atom, coeffidx, coeff: 55, 273, 0.000000 
atom, coeffidx, coeff: 55, 274, 0.000000 
atom, coeffidx, coeff: 55, 275, 0.000000 
atom, coeffidx, coeff: 55, 276, 0.000000 
atom, coeffidx, coeff: 55, 277, 0.000000 
atom, coeffidx, coeff: 55, 278, 0.000000 
atom, coeffidx, coeff: 55, 279, 0.000000 
atom, coeffidx, coeff: 55, 280, 0.000000 
atom, coeffidx, coeff: 55, 281, 0.000000 
atom, coeffidx, coeff: 55, 282, 0.000000 
atom, coeffidx, coeff: 55, 283, 0.000000 
atom, coeffidx, coeff: 55, 284, 0.000000 
atom, coeffidx, coeff: 55, 285, 0.000000 
atom, coeffidx, coeff: 55, 286, 0.000000 
atom, coeffidx, coeff: 55, 287, 0.000000 
atom, coeffidx, coeff: 55, 288, 0.000000 
atom, coeffidx, coeff: 55, 289, 0.000000 
atom, coeffidx, coeff: 55, 290, 0.000000 
atom, coeffidx, coeff: 55, 291, 0.000000 
atom, coeffidx, coeff: 55, 292, 0.000000 
atom, coeffidx, coeff: 55, 293, 0.000000 
atom, coeffidx, coeff: 55, 294, 0.000000 
atom, coeffidx, coeff: 55, 295, 0.000000 
atom, coeffidx, coeff: 55, 296, 0.000000 
atom, coeffidx, coeff: 55, 297, 0.000000 
atom, coeffidx, coeff: 55, 298, 0.000000 
atom, coeffidx, coeff: 55, 299, 0.000000 
atom, coeffidx, coeff: 55, 300, 0.000000 
atom, coeffidx, coeff: 55, 301, 0.000000 
atom, coeffidx, coeff: 55, 302, 0.000000 
atom, coeffidx, coeff: 55, 303, 0.000000 
atom, coeffidx, coeff: 55, 304, 0.000000 
atom, coeffidx, coeff: 55, 305, 0.000000 
atom, coeffidx, coeff: 55, 306, 0.000000 
atom, coeffidx, coeff: 55, 307, 0.000000 
atom, coeffidx, coeff: 55, 308, 0.000000 
atom, coeffidx, coeff: 55, 309, 0.000000 
atom, coeffidx, coeff: 55, 310, 0.000000 
atom, coeffidx, coeff: 55, 311, 0.000000 
atom, coeffidx, coeff: 55, 312, 0.000000 
atom, coeffidx, coeff: 55, 313, 0.000000 
atom, coeffidx, coeff: 55, 314, 0.000000 
atom, coeffidx, coeff: 55, 315, 0.000000 
atom, coeffidx, coeff: 55, 316, 0.000000 
atom, coeffidx, coeff: 55, 317, 0.000000 
atom, coeffidx, coeff: 55, 318, 0.000000 
atom, coeffidx, coeff: 55, 319, 0.000000 
atom, coeffidx, coeff: 55, 320, 0.000000 
atom, coeffidx, coeff: 55, 321, 0.000000 
atom, coeffidx, coeff: 55, 322, 0.000000 
atom, coeffidx, coeff: 55, 323, 0.000000 
atom, coeffidx, coeff: 55, 324, 0.000000 
atom, coeffidx, coeff: 55, 325, 0.000000 
atom, coeffidx, coeff: 55, 326, 0.000000 
atom, coeffidx, coeff: 55, 327, 0.000000 
atom, coeffidx, coeff: 55, 328, 0.000000 
atom, coeffidx, coeff: 55, 329, 0.000000 
atom, coeffidx, coeff: 55, 330, 0.000000 
atom, coeffidx, coeff: 55, 331, 0.000000 
atom, coeffidx, coeff: 55, 332, 0.000000 
atom, coeffidx, coeff: 55, 333, 0.000000 
atom, coeffidx, coeff: 55, 334, 0.000000 
atom, coeffidx, coeff: 55, 335, 0.000000 
atom, coeffidx, coeff: 55, 336, 0.000000 
atom, coeffidx, coeff: 55, 337, 0.000000 
atom, coeffidx, coeff: 55, 338, 0.000000 
atom, coeffidx, coeff: 55, 339, 0.000000 
atom, coeffidx, coeff: 55, 340, 0.000000 
atom, coeffidx, coeff: 55, 341, 0.000000 
atom, coeffidx, coeff: 55, 342, 0.000000 
atom, coeffidx, coeff: 55, 343, 0.000000 
atom, coeffidx, coeff: 55, 344, 0.000000 
atom, coeffidx, coeff: 55, 345, 0.000000 
atom, coeffidx, coeff: 55, 346, 0.000000 
atom, coeffidx, coeff: 55, 347, 0.000000 
atom, coeffidx, coeff: 55, 348, 0.000000 
atom, coeffidx, coeff: 55, 349, 0.000000 
atom, coeffidx, coeff: 55, 350, 0.000000 
atom, coeffidx, coeff: 55, 351, 0.000000 
atom, coeffidx, coeff: 55, 352, 0.000000 
atom, coeffidx, coeff: 55, 353, 0.000000 
atom, coeffidx, coeff: 55, 354, 0.000000 
atom, coeffidx, coeff: 55, 355, 0.000000 
atom, coeffidx, coeff: 55, 356, 0.000000 
atom, coeffidx, coeff: 55, 357, 0.000000 
atom, coeffidx, coeff: 55, 358, 0.000000 
atom, coeffidx, coeff: 55, 359, 0.000000 
atom, coeffidx, coeff: 55, 360, 0.000000 
atom, coeffidx, coeff: 55, 361, 0.000000 
atom, coeffidx, coeff: 55, 362, 0.000000 
atom, coeffidx, coeff: 55, 363, 0.000000 
atom, coeffidx, coeff: 55, 364, 0.000000 
atom, coeffidx, coeff: 55, 365, 0.000000 
atom, coeffidx, coeff: 55, 366, -0.000000 
atom, coeffidx, coeff: 55, 367, 0.000000 
atom, coeffidx, coeff: 55, 368, 0.000000 
atom, coeffidx, coeff: 55, 369, 0.000000 
atom, coeffidx, coeff: 55, 370, 0.000000 
atom, coeffidx, coeff: 55, 371, 0.000000 
atom, coeffidx, coeff: 55, 372, 0.000000 
atom, coeffidx, coeff: 55, 373, 0.000000 
atom, coeffidx, coeff: 55, 374, 0.000000 
atom, coeffidx, coeff: 55, 375, 0.000000 
atom, coeffidx, coeff: 55, 376, 0.000000 
atom, coeffidx, coeff: 55, 377, 0.000000 
atom, coeffidx, coeff: 55, 378, 0.000000 
atom, coeffidx, coeff: 55, 379, 0.000000 
atom, coeffidx, coeff: 55, 380, 0.000000 
atom, coeffidx, coeff: 55, 381, 0.000000 
atom, coeffidx, coeff: 55, 382, 0.000000 
atom, coeffidx, coeff: 55, 383, 0.000000 
atom, coeffidx, coeff: 55, 384, 0.000000 
atom, coeffidx, coeff: 55, 385, 0.000000 
atom, coeffidx, coeff: 55, 386, 0.000000 
atom, coeffidx, coeff: 55, 387, 0.000000 
atom, coeffidx, coeff: 55, 388, 0.000000 
atom, coeffidx, coeff: 55, 389, 0.000000 
atom, coeffidx, coeff: 55, 390, 0.000000 
atom, coeffidx, coeff: 55, 391, 0.000000 
atom, coeffidx, coeff: 55, 392, 0.000000 
atom, coeffidx, coeff: 55, 393, 0.000000 
atom, coeffidx, coeff: 55, 394, 0.000000 
atom, coeffidx, coeff: 55, 395, 0.000000 
atom, coeffidx, coeff: 55, 396, 0.000000 
atom, coeffidx, coeff: 55, 397, 0.000000 
atom, coeffidx, coeff: 55, 398, 0.000000 
atom, coeffidx, coeff: 55, 399, 0.000000 
atom, coeffidx, coeff: 55, 400, 0.000000 
atom, coeffidx, coeff: 55, 401, 0.000000 
atom, coeffidx, coeff: 55, 402, 0.000000 
atom, coeffidx, coeff: 55, 403, 0.000000 
atom, coeffidx, coeff: 55, 404, 0.000000 
atom, coeffidx, coeff: 55, 405, 0.000000 
atom, coeffidx, coeff: 55, 406, 0.000000 
atom, coeffidx, coeff: 55, 407, 0.000000 
atom, coeffidx, coeff: 55, 408, 0.000000 
atom, coeffidx, coeff: 55, 409, 0.000000 
atom, coeffidx, coeff: 55, 410, 0.000000 
atom, coeffidx, coeff: 55, 411, 0.000000 
atom, coeffidx, coeff: 55, 412, 0.000000 
atom, coeffidx, coeff: 55, 413, 0.000000 
atom, coeffidx, coeff: 55, 414, 0.000000 
atom, coeffidx, coeff: 55, 415, 0.000000 
atom, coeffidx, coeff: 55, 416, 0.000000 
atom, coeffidx, coeff: 55, 417, 0.000000 
atom, coeffidx, coeff: 55, 418, 0.000000 
atom, coeffidx, coeff: 55, 419, 0.000000 
atom, coeffidx, coeff: 55, 420, 0.000000 
atom, coeffidx, coeff: 55, 421, 0.000000 
atom, coeffidx, coeff: 55, 422, 0.000000 
atom, coeffidx, coeff: 55, 423, 0.000000 
atom, coeffidx, coeff: 55, 424, 0.000000 
atom, coeffidx, coeff: 55, 425, 0.000000 
atom, coeffidx, coeff: 55, 426, 0.000000 
atom, coeffidx, coeff: 55, 427, 0.000000 
atom, coeffidx, coeff: 55, 428, 0.000000 
atom, coeffidx, coeff: 55, 429, 0.000000 
atom, coeffidx, coeff: 55, 430, 0.000000 
atom, coeffidx, coeff: 55, 431, 0.000000 
atom, coeffidx, coeff: 55, 432, 0.000000 
atom, coeffidx, coeff: 55, 433, 0.000000 
atom, coeffidx, coeff: 55, 434, 0.000000 
atom, coeffidx, coeff: 55, 435, 0.000000 
atom, coeffidx, coeff: 55, 436, 0.000000 
atom, coeffidx, coeff: 55, 437, 0.000000 
atom, coeffidx, coeff: 55, 438, 0.000000 
atom, coeffidx, coeff: 55, 439, 0.000000 
atom, coeffidx, coeff: 55, 440, 0.000000 
atom, coeffidx, coeff: 55, 441, 0.000000 
atom, coeffidx, coeff: 55, 442, 0.000000 
atom, coeffidx, coeff: 55, 443, 0.000000 
atom, coeffidx, coeff: 55, 444, 0.000000 
atom, coeffidx, coeff: 55, 445, 0.000000 
atom, coeffidx, coeff: 55, 446, 0.000000 
atom, coeffidx, coeff: 55, 447, 0.000000 
atom, coeffidx, coeff: 55, 448, 0.000000 
atom, coeffidx, coeff: 55, 449, 0.000000 
atom, coeffidx, coeff: 55, 450, 0.000000 
atom, coeffidx, coeff: 55, 451, 0.000000 
atom, coeffidx, coeff: 55, 452, 0.000000 
atom, coeffidx, coeff: 55, 453, 0.000000 
atom, coeffidx, coeff: 55, 454, 0.000000 
atom, coeffidx, coeff: 55, 455, 0.000000 
atom, coeffidx, coeff: 55, 456, 0.000000 
atom, coeffidx, coeff: 55, 457, 0.000000 
atom, coeffidx, coeff: 55, 458, 0.000000 
atom, coeffidx, coeff: 55, 459, 0.000000 
atom, coeffidx, coeff: 55, 460, 0.000000 
atom, coeffidx, coeff: 55, 461, 0.000000 
atom, coeffidx, coeff: 55, 462, 0.000000 
atom, coeffidx, coeff: 55, 463, 0.000000 
atom, coeffidx, coeff: 55, 464, 0.000000 
atom, coeffidx, coeff: 55, 465, 0.000000 
atom, coeffidx, coeff: 55, 466, 0.000000 
atom, coeffidx, coeff: 55, 467, 0.000000 
atom, coeffidx, coeff: 55, 468, 0.000000 
atom, coeffidx, coeff: 55, 469, 0.000000 
atom, coeffidx, coeff: 55, 470, 0.000000 
atom, coeffidx, coeff: 55, 471, 0.000000 
atom, coeffidx, coeff: 55, 472, 0.000000 
atom, coeffidx, coeff: 55, 473, 0.000000 
atom, coeffidx, coeff: 55, 474, 0.000000 
atom, coeffidx, coeff: 55, 475, 0.000000 
atom, coeffidx, coeff: 55, 476, 0.000000 
atom, coeffidx, coeff: 55, 477, 0.000000 
atom, coeffidx, coeff: 55, 478, 0.000000 
atom, coeffidx, coeff: 55, 479, 0.000000 
atom, coeffidx, coeff: 55, 480, 0.000000 
atom, coeffidx, coeff: 55, 481, 0.000000 
atom, coeffidx, coeff: 55, 482, 0.000000 
atom, coeffidx, coeff: 55, 483, 0.000000 
atom, coeffidx, coeff: 55, 484, 0.000000 
atom, coeffidx, coeff: 55, 485, 0.000000 
atom, coeffidx, coeff: 55, 486, 0.000000 
atom, coeffidx, coeff: 55, 487, 0.000000 
atom, coeffidx, coeff: 55, 488, 0.000000 
atom, coeffidx, coeff: 55, 489, 0.000000 
atom, coeffidx, coeff: 55, 490, 0.000000 
atom, coeffidx, coeff: 55, 491, 0.000000 
atom, coeffidx, coeff: 55, 492, 0.000000 
atom, coeffidx, coeff: 55, 493, 0.000000 
atom, coeffidx, coeff: 55, 494, 0.000000 
atom, coeffidx, coeff: 55, 495, 0.000000 
atom, coeffidx, coeff: 55, 496, 0.000000 
atom, coeffidx, coeff: 55, 497, 0.000000 
atom, coeffidx, coeff: 55, 498, 0.000000 
atom, coeffidx, coeff: 55, 499, 0.000000 
atom, coeffidx, coeff: 55, 500, 0.000000 
atom, coeffidx, coeff: 55, 501, 0.000000 
atom, coeffidx, coeff: 55, 502, 0.000000 
atom, coeffidx, coeff: 55, 503, 0.000000 
       0            0            0            0    227.16053            0            0    227.16053            0            0            0            0            0            0            0            0            0            0            0            0            0            0            0            0            0            0            0            0            0            0            0            0            0            0            0            0            0            0            0            0            0            0            0            0            0            0            0            0            0            0            0            0            0            0            0            0            0            0            0            0            0            0            0            0            0            0            0            0            0            0            0            0            0            0            0            0            0            0            0            0    3225.1735    16.910333    469.33291    443.70378    5.1080212    105.86769    61.350747    1.6633666    25.458495            0            0            0            0            0            0            0            0            0            0            0            0            0            0            0            0            0            0            0            0            0            0            0            0            0            0            0            0            0            0            0            0            0            0            0            0            0            0            0            0            0            0            0            0            0            0            0            0            0            0            0            0            0            0            0            0            0            0            0            0            0            0            0            0            0            0            0            0            0            0            0            0    3225.1735    16.910333    469.33291    443.70378    5.1080212    105.86769    61.350747    1.6633666    25.458495 1.9317123e-315 5.9833326e-319    459.65746 1.1053248e-308 4.4153374e-315    459.65746 7.6813189e+140    4.1181915    67.545531    6.7985744    2.1329936    843.28288    78.047242    47.305846    89.005028    20.758807    18.748287    9.5557508    16.964543    14.189832    122.06427 2.7622115e-316 4.8357981e-309 1.036242e-308 4.1393817e-315 1.3560422e+166 4.8357984e-309 1.036242e-308 8.9991527e+130 2.2076747e-315 2.2098922e-315            0 2.2102198e-315            0 2.8647902e-319 3.1620201e-321 2.2076864e-315 4.4166525e-315 6.8749333e-95 3.137852e-26 8.8536564e-321 2.2076861e-315 4.4166601e-315            0 2.2079602e-315 5.7311615e-321 4.4153532e-315 5.5266261e-309 2.2076717e-315 1.3043333e-321 2.207651e-315 5.5266261e-309 2.2077006e-315 1.8972121e-321 2.2098922e-315 1.2687606e-320 4.0397995e-315 2.207725e-315 7.6731371e-311 1.0790394e-320 4.4153931e-315 4.4189054e-315 6.8749333e-95 3.137852e-26 3.9525252e-323 2.2076873e-315 2.2076848e-315            0 2.2079843e-315 3.2015454e-321 2.2077041e-315 4.4153959e-315 2.3319898e-321            0            0 2.207688e-315 2.207688e-315            0    6602.7074    244.67044    1677.8186     716.4418    116.59556    394.61658    77.826883    55.952392    104.88403 2.2076956e-315 2.2089728e-315 5.5266239e-309 2.2076902e-315 1.3043333e-321 4.4166674e-315 5.5266239e-309 3.0734836e-319 2.2076987e-315 2.2077218e-315 2.2077161e-315            0            0            0 2.2077038e-315 2.2077038e-315 2.2076975e-315 2.2083484e-315 1.648203e-320 2.2079995e-315 2.2077421e-315 2.2077168e-315 7.6283736e-321 4.4154177e-315 2.2099321e-315 2.2089728e-315 5.5266261e-309 2.2076902e-315 3.7944242e-321 4.4166825e-315 5.5266239e-309 2.2080159e-315 3.1620201e-321 2.2077218e-315 2.2077161e-315 2.2033108e-315 2.2033114e-315 2.2033114e-315 2.2077038e-315 2.2077038e-315            0 6.5094137e-319 2.2077298e-315 4.4157039e-315 2.2077408e-315 8.8536564e-321 8.8931816e-321 4.4154626e-315 2.2099295e-315 2.2077074e-315 2.2077114e-315 2.2076896e-315 5.5266239e-309 4.4154158e-315 1.3833838e-321  4.4154e-315 5.5266239e-309 1.2648081e-320 2.5296161e-321 4.4114551e-315 4.4110655e-315 4.4132492e-315 2.2081449e-315 2.2077029e-315 2.2077174e-315            0 2.2077146e-315 4.4158329e-315 2.207756e-315 3.3390933e-319 4.4268282e-321 4.415474e-315    6602.7074    244.67044    1677.8186     716.4418    116.59556    394.61658    77.826883    55.952392    104.88403    357.05128 2.2089507e-315    115.20213 2.2106498e-308 1.3248363e-314    115.20213    16.964543    14.189832    122.06427 4.6915674e-315 4.8357981e-309 4.8357981e-309 4.1397674e-315 1.3560422e+166 4.8358006e-309 4.8358003e-309 8.9991527e+130 6.6230273e-315 6.6243285e-315 2.2077234e-315 4.4154117e-315 5.0987575e-321 6.6256015e-315 5.5266261e-309 1.0660323e-314 4.4154435e-315 7.6740201e-311 1.6579872e-308 8.8308544e-315 2.2099353e-315 -2.1643979e-243 1.105325e-308 6.6256211e-315 5.5266239e-309 8.8354476e-315 5.5266239e-309 1.3251231e-314 5.5266261e-309 6.8749333e-95 3.137852e-26 6.6231427e-315 8.83339e-315 1.3749867e-94 6.275704e-26 2.2105095e-315 6.623112e-315 8.8310976e-315 4.4154364e-315 4.4160039e-315 2.2089987e-315 6.8749333e-95 3.137852e-26 5.5623592e-309 2.2076925e-315 6.6231734e-315 6.6253208e-315 8.4529507e-315 5.5266283e-309 7.6735786e-311 2.2077371e-315 
Loop time of 1.514e-06 on 1 procs for 0 steps with 56 atoms

0.0% CPU use with 1 MPI tasks x 1 OpenMP threads

MPI task timing breakdown:
Section |  min time  |  avg time  |  max time  |%varavg| %total
---------------------------------------------------------------
Pair    | 0          | 0          | 0          |   0.0 |  0.00
Neigh   | 0          | 0          | 0          |   0.0 |  0.00
Comm    | 0          | 0          | 0          |   0.0 |  0.00
Output  | 0          | 0          | 0          |   0.0 |  0.00
Modify  | 0          | 0          | 0          |   0.0 |  0.00
Other   |            | 1.514e-06  |            |       |100.00

Nlocal:             56 ave          56 max          56 min
Histogram: 1 0 0 0 0 0 0 0 0 0
Nghost:            819 ave         819 max         819 min
Histogram: 1 0 0 0 0 0 0 0 0 0
Neighs:           3320 ave        3320 max        3320 min
Histogram: 1 0 0 0 0 0 0 0 0 0
FullNghs:         6640 ave        6640 max        6640 min
Histogram: 1 0 0 0 0 0 0 0 0 0

Total # of neighbors = 6640
Ave neighs/atom = 118.57143
Neighbor list builds = 0
Dangerous builds = 0
Total wall time: 0:00:02
