ats.0.data (written by ASE) 

4 	 atoms 
1  atom types
0.0                   3.597  xlo xhi
0.0                   3.597  ylo yhi
0.0                   3.597  zlo zhi


Atoms 

     1   1                       0                       0                       0
     2   1                  1.7985                  1.7985                       0
     3   1                  1.7985                       0                  1.7985
     4   1                       0                  1.7985                  1.7985
