LAMMPS (27 Oct 2021)
inside init buffers
Lattice spacing in x,y,z = 3.5970000 3.5970000 3.5970000
Created orthogonal box = (0.0000000 0.0000000 0.0000000) to (3.5970000 3.5970000 3.5970000)
  1 by 1 by 1 MPI processor grid
Created 4 atoms
  using lattice units in orthogonal box = (0.0000000 0.0000000 0.0000000) to (3.5970000 3.5970000 3.5970000)
  create_atoms CPU = 0.000 seconds
4 atoms in group Al
Notice! No embedding-function is specified, but potential has linear embedding, default embedding-function: FinnisSinclair would be assumed
$! number of coefficients: 232
Neighbor list info ...
  update every 2 steps, delay 10 steps, check yes
  max neighbors/atom: 2000, page size: 100000
  master list distance cutoff = 7.802
  ghost atom cutoff = 7.802
  binsize = 3.901, bins = 1 1 1
  2 neighbor lists, perpetual/occasional/extra = 1 1 0
  (1) pair zero, perpetual
      attributes: half, newton on
      pair build: half/bin/atomonly/newton
      stencil: half/bin/3d
      bin: standard
  (2) compute pace, occasional
      attributes: full, newton on
      pair build: full/bin/atomonly
      stencil: full/bin/3d
      bin: standard
Setting up Verlet run ...
  Unit style    : metal
  Current step  : 0
  Time step     : 0.0005
inside reverse comm
Per MPI rank memory allocation (min/avg/max) = 4.940 | 4.940 | 4.940 Mbytes
Step Temp c_desc[1][1] c_desc[1][2] c_desc[1][3] c_desc[1][4] c_desc[1][5] c_desc[1][6] c_desc[1][7] c_desc[1][8] c_desc[1][9] c_desc[1][10] c_desc[1][11] c_desc[1][12] c_desc[1][13] c_desc[1][14] c_desc[1][15] c_desc[1][16] c_desc[1][17] c_desc[1][18] c_desc[1][19] c_desc[1][20] c_desc[1][21] c_desc[1][22] c_desc[1][23] c_desc[1][24] c_desc[1][25] c_desc[1][26] c_desc[1][27] c_desc[1][28] c_desc[1][29] c_desc[1][30] c_desc[1][31] c_desc[1][32] c_desc[1][33] c_desc[1][34] c_desc[1][35] c_desc[1][36] c_desc[1][37] c_desc[1][38] c_desc[1][39] c_desc[1][40] c_desc[1][41] c_desc[1][42] c_desc[1][43] c_desc[1][44] c_desc[1][45] c_desc[1][46] c_desc[1][47] c_desc[1][48] c_desc[1][49] c_desc[1][50] c_desc[1][51] c_desc[1][52] c_desc[1][53] c_desc[1][54] c_desc[1][55] c_desc[1][56] c_desc[1][57] c_desc[1][58] c_desc[1][59] c_desc[1][60] c_desc[1][61] c_desc[1][62] c_desc[1][63] c_desc[1][64] c_desc[1][65] c_desc[1][66] c_desc[1][67] c_desc[1][68] c_desc[1][69] c_desc[1][70] c_desc[1][71] c_desc[1][72] c_desc[1][73] c_desc[1][74] c_desc[1][75] c_desc[1][76] c_desc[1][77] c_desc[1][78] c_desc[1][79] c_desc[1][80] c_desc[1][81] c_desc[1][82] c_desc[1][83] c_desc[1][84] c_desc[1][85] c_desc[1][86] c_desc[1][87] c_desc[1][88] c_desc[1][89] c_desc[1][90] c_desc[1][91] c_desc[1][92] c_desc[1][93] c_desc[1][94] c_desc[1][95] c_desc[1][96] c_desc[1][97] c_desc[1][98] c_desc[1][99] c_desc[1][100] c_desc[1][101] c_desc[1][102] c_desc[1][103] c_desc[1][104] c_desc[1][105] c_desc[1][106] c_desc[1][107] c_desc[1][108] c_desc[1][109] c_desc[1][110] c_desc[1][111] c_desc[1][112] c_desc[1][113] c_desc[1][114] c_desc[1][115] c_desc[1][116] c_desc[1][117] c_desc[1][118] c_desc[1][119] c_desc[1][120] c_desc[1][121] c_desc[1][122] c_desc[1][123] c_desc[1][124] c_desc[1][125] c_desc[1][126] c_desc[1][127] c_desc[1][128] c_desc[1][129] c_desc[1][130] c_desc[1][131] c_desc[1][132] c_desc[1][133] c_desc[1][134] c_desc[1][135] c_desc[1][136] c_desc[1][137] c_desc[1][138] c_desc[1][139] c_desc[1][140] c_desc[1][141] c_desc[1][142] c_desc[1][143] c_desc[1][144] c_desc[1][145] c_desc[1][146] c_desc[1][147] c_desc[1][148] c_desc[1][149] c_desc[1][150] c_desc[1][151] c_desc[1][152] c_desc[1][153] c_desc[1][154] c_desc[1][155] c_desc[1][156] c_desc[1][157] c_desc[1][158] c_desc[1][159] c_desc[1][160] c_desc[1][161] c_desc[1][162] c_desc[1][163] c_desc[1][164] c_desc[1][165] c_desc[1][166] c_desc[1][167] c_desc[1][168] c_desc[1][169] c_desc[1][170] c_desc[1][171] c_desc[1][172] c_desc[1][173] c_desc[1][174] c_desc[1][175] c_desc[1][176] c_desc[1][177] c_desc[1][178] c_desc[1][179] c_desc[1][180] c_desc[1][181] c_desc[1][182] c_desc[1][183] c_desc[1][184] c_desc[1][185] c_desc[1][186] c_desc[1][187] c_desc[1][188] c_desc[1][189] c_desc[1][190] c_desc[1][191] c_desc[1][192] c_desc[1][193] c_desc[1][194] c_desc[1][195] c_desc[1][196] c_desc[1][197] c_desc[1][198] c_desc[1][199] c_desc[1][200] c_desc[1][201] c_desc[1][202] c_desc[1][203] c_desc[1][204] c_desc[1][205] c_desc[1][206] c_desc[1][207] c_desc[1][208] c_desc[1][209] c_desc[1][210] c_desc[1][211] c_desc[1][212] c_desc[1][213] c_desc[1][214] c_desc[1][215] c_desc[1][216] c_desc[1][217] c_desc[1][218] c_desc[1][219] c_desc[1][220] c_desc[1][221] c_desc[1][222] c_desc[1][223] c_desc[1][224] c_desc[1][225] c_desc[1][226] c_desc[1][227] c_desc[1][228] c_desc[1][229] c_desc[1][230] c_desc[1][231] c_desc[1][232] 
Mapping LAMMPS atom type #1(C) -> ACE species type #0
Mapping LAMMPS atom type #1(C) -> ACE species type #0
Mapping LAMMPS atom type #1(C) -> ACE species type #0
Mapping LAMMPS atom type #1(C) -> ACE species type #0
inside reverse comm
final fx -3774671.577971 
final fy -135930781.385384 
final fz 190348842.141483 
final fx -96906907.561139 
final fy 251418242.920448 
final fz -132587852.522143 
final fx -71535796.575309 
final fy -351870773.944287 
final fz 22500779.447758 
final fx 172217375.714419 
final fy 236383312.409224 
final fz -80261769.067098 
       0            0     115.0779    9.6084383    33.204142    58.494749    73.975909    75.863406    69.465552    64.312291    66.726862    75.221282    81.948718    79.021736    64.982842    46.610476    34.623719    36.281808     3310.731 1.8704296e-29 5.8745343e-29    276.42974 -1.0242845e-30 1.0050058e-29    23.080522 4.025117e-31 2.0673328e-30    95247.996 -3.1067957e-28 7.558235e-28 1.4248214e-44 -5.0816606e-44    7952.7387 1.7013433e-29 1.2930506e-28 2.5361737e-45 -8.6438065e-45 -1.1566289e-45    664.01452 -6.6857454e-30 2.6598513e-29 -2.4798946e-46 -1.710398e-45 -2.5940214e-29 6.310754e-29 1.4205378e-30 1.0796336e-29 4.5903272e-46    55.441942 -5.5822681e-31 2.2208448e-30 7.9310135e-47 -3.8878894e-46      2740235 -8.9380884e-27 2.1744646e-26 7.5551548e-59 -1.0492448e-58 5.282736e-58    228796.12 4.8946754e-28 3.7200389e-27 -6.3643757e-60 -1.7405092e-59 8.3181803e-59     19103.35 -1.9234539e-28 7.6522528e-28 1.2163167e-60 -3.154229e-60 1.5174569e-59 -7.4628637e-28 1.8155709e-27 6.6688745e-60 4.086813e-29 3.1060493e-28 1.3550904e-60    1595.0356 -1.6059893e-29 6.3892542e-29 -9.7487805e-62 2.6567429e-61 3.2704855e-60 -6.2311237e-29 1.5159123e-28 -2.6630164e-60 3.4122876e-30 2.5933982e-29 -4.2626606e-61    133.17762 -1.340922e-30 5.3347127e-30 3.1533413e-62 -8.0687109e-62 7.9224255e-61     78835124 -2.5714412e-25 6.2558208e-25 1.2349161e-73 3.0068579e-73 -1.2071971e-72    6582344.6 1.4081725e-26 1.0702357e-25 2.2983943e-74 5.1905525e-74 -1.8666948e-73 -1.119619e-74    549593.36 -5.5336761e-27 2.201513e-26 -2.2448956e-75 9.4086975e-75 -3.326418e-74 -2.1470268e-26 5.2233023e-26 1.1757547e-27 8.9359411e-27 1.9841935e-75    45888.339 -4.6203471e-28 1.838155e-27 3.2810098e-76 1.7457375e-75 -6.918094e-75 -2.0914258e-74 -4.6499778e-75 -9.610743e-76 -1.7926616e-27 4.3612002e-27 9.8169725e-29 7.4610708e-28 -1.7607781e-76    3831.4504 -3.8577623e-29 1.5347689e-28 -3.4054104e-77 -1.9807562e-76 -1.6278676e-75 9.2328138e-75 1.4318614e-75 2.5869423e-76 -1.4967842e-28 3.6413874e-28 8.1966886e-30 6.2296267e-29 6.7272581e-77    319.90724 -3.2210415e-30 1.2814564e-29 1.0736339e-77 5.5357008e-77 -4.1656512e-76 2.2680452e+09 -7.3979016e-24 1.7997669e-23 -1.5986574e-88 2.086437e-88 -7.6251422e-88 3.4416438e-87 1.8937061e+08 4.0512384e-25 3.0790121e-24 1.6404186e-89 4.9165497e-89 -1.2942949e-88 5.1151797e-88     15811513 -1.5920096e-25 6.3336376e-25 -2.4703282e-90 1.103532e-89 -2.3447411e-89 8.6518608e-89 -6.1768836e-25 1.5027167e-24 -2.5634708e-89 3.3825846e-26 2.5708234e-25 -5.6852684e-90    1320183.5 -1.3292496e-26 5.2882755e-26 2.633558e-91 -1.2404167e-90 -4.4206806e-90 1.6874488e-89 -5.1573936e-26 1.2546944e-25 3.7376029e-90 2.8242916e-27 2.146511e-26 6.9993635e-91    110228.82 -1.109858e-27 4.4154497e-27 -4.8378658e-92 1.3104537e-91 -8.5478199e-91 3.7604915e-90 4.8342001e-89 1.0955694e-89 2.3091377e-90 4.8008743e-91 -4.3061697e-27 1.0476081e-26 -2.625783e-91 2.3581444e-28 1.792231e-27 -6.770205e-92    9203.5636 -9.2667677e-29 3.686683e-28 4.9048643e-93 -1.4397049e-92 9.8976563e-92 9.3021869e-91 -2.2803273e-89 -3.4042092e-90 -5.8507397e-91 -1.1857481e-91 -3.5954396e-28 8.7470115e-28 1.4989291e-91 1.9689344e-29 1.4964246e-28 2.3812725e-92    768.45224 -7.7372947e-30 3.0781988e-29 -1.2917618e-93 4.3927257e-93 -2.766266e-92 2.4524647e-91 
Loop time of 8.53e-07 on 1 procs for 0 steps with 4 atoms

117.2% CPU use with 1 MPI tasks x no OpenMP threads

MPI task timing breakdown:
Section |  min time  |  avg time  |  max time  |%varavg| %total
---------------------------------------------------------------
Pair    | 0          | 0          | 0          |   0.0 |  0.00
Neigh   | 0          | 0          | 0          |   0.0 |  0.00
Comm    | 0          | 0          | 0          |   0.0 |  0.00
Output  | 0          | 0          | 0          |   0.0 |  0.00
Modify  | 0          | 0          | 0          |   0.0 |  0.00
Other   |            | 8.53e-07   |            |       |100.00

Nlocal:        4.00000 ave           4 max           4 min
Histogram: 1 0 0 0 0 0 0 0 0 0
Nghost:        662.000 ave         662 max         662 min
Histogram: 1 0 0 0 0 0 0 0 0 0
Neighs:        352.000 ave         352 max         352 min
Histogram: 1 0 0 0 0 0 0 0 0 0
FullNghs:      704.000 ave         704 max         704 min
Histogram: 1 0 0 0 0 0 0 0 0 0

Total # of neighbors = 704
Ave neighs/atom = 176.00000
Neighbor list builds = 0
Dangerous builds = 0
Total wall time: 0:00:00
