LAMMPS (3 Aug 2022)
Total wall time: 0:00:00
